                               Psi4 1.3.2 release

  ==> Input File <==

--------------------------------------------------------------------------

# PYTHONPATH must include directory above plugin directory.
#     Define either externally or here, then import plugin.

molecule {
  O   0.27681793323501      0.00000014791107      0.00000000000000
  H   0.86159097690242      0.76505117501585      0.00000000000000
  H   0.86159108986257     -0.76505132292693      0.00000000000000
symmetry c1
}

set {
  basis def2-TZVP
}

set scf {
 reference uks
}

energy('wPBE')
--------------------------------------------------------------------------

    Molecular point group: c1

    Geometry (in Angstrom), charge = 0, multiplicity = 1:

       Center              X                  Y                   Z               Mass
    ------------   -----------------  -----------------  -----------------  -----------------
         O           -0.065444807405     0.000000024830     0.000000000000    15.994914619570
         H            0.519328236262     0.765051051935     0.000000000000     1.007825032230
         H            0.519328349222    -0.765051446008     0.000000000000     1.007825032230

  Charge       = 0
  Multiplicity = 1
  Basis Set: DEF2-TZVP
    Blend: DEF2-TZVP
  Basis Set: (DEF2-TZVP AUX)
    Blend: DEF2-TZVP-JKFIT

    Orbital Energies [Eh]
    ---------------------

    Alpha Occupied:

       1A    -18.962574     2A     -1.142103     3A     -0.657800
       4A     -0.511306     5A     -0.437740

    Alpha Virtual:

       6A      0.108824     7A      0.179249     8A      0.467404
       9A      0.517148    10A      0.546933    11A      0.553449
      12A      0.680970    13A      0.706504    14A      1.280092
      15A      1.299986    16A      1.410533    17A      1.641596
      18A      1.749990    19A      1.866502    20A      2.097940
      21A      2.170151    22A      2.223081    23A      2.398019
      24A      2.498744    25A      2.686137    26A      2.717563
      27A      2.721864    28A      2.885629    29A      3.741623
      30A      4.036618    31A      5.194938    32A      5.293532
      33A      5.472705    34A      5.495051    35A      5.560792
      36A      6.115696    37A      6.303361    38A      6.393632
      39A      6.457913    40A      6.504042    41A      6.994670
      42A      7.073598    43A     43.091593

    Beta Occupied:

       1A    -18.962574     2A     -1.142103     3A     -0.657800
       4A     -0.511306     5A     -0.437740

    Beta Virtual:

       6A      0.108824     7A      0.179249     8A      0.467404
       9A      0.517148    10A      0.546933    11A      0.553449
      12A      0.680970    13A      0.706504    14A      1.280092
      15A      1.299986    16A      1.410533    17A      1.641596
      18A      1.749990    19A      1.866502    20A      2.097940
      21A      2.170151    22A      2.223081    23A      2.398019
      24A      2.498744    25A      2.686137    26A      2.717563
      27A      2.721864    28A      2.885629    29A      3.741623
      30A      4.036618    31A      5.194938    32A      5.293532
      33A      5.472705    34A      5.495051    35A      5.560792
      36A      6.115696    37A      6.303361    38A      6.393632
      39A      6.457913    40A      6.504042    41A      6.994670
      42A      7.073598    43A     43.091593

    Final Occupation by Irrep:
              A
    DOCC [     5 ]
    SOCC [     0 ]

  @DF-UKS Final Energy:   -76.41315610145828

   => Energetics <=

    Nuclear Repulsion Energy =              9.1384915739382020
    One-Electron Energy =                -123.0120096071370028
    Two-Electron Energy =                  44.7140464086707752
    DFT Exchange-Correlation Energy =      -7.2536844769302649
    Empirical Dispersion Energy =           0.0000000000000000
    VV10 Nonlocal Energy =                  0.0000000000000000
    Total Energy =                        -76.4131561014582985

  UHF NO Occupations:
  HONO-2 :    3  A 2.0000000
  HONO-1 :    4  A 2.0000000
  HONO-0 :    5  A 2.0000000
  LUNO+0 :    6  A 0.0000000
  LUNO+1 :    7  A 0.0000000
  LUNO+2 :    8  A 0.0000000
  LUNO+3 :    9  A 0.0000000

Computation Completed

Properties will be evaluated at   0.000000,   0.000000,   0.000000 [a0]

Properties computed using the SCF density matrix

  Nuclear Dipole Moment: [e a0]
     X:     0.9734      Y:    -0.0000      Z:     0.0000

  Electronic Dipole Moment: [e a0]
     X:    -0.1429      Y:     0.0000      Z:    -0.0000

  Dipole Moment: [e a0]
     X:     0.8305      Y:    -0.0000      Z:    -0.0000     Total:     0.8305

  Dipole Moment: [D]
     X:     2.1109      Y:    -0.0000      Z:    -0.0000     Total:     2.1109

*** tstop() called on rh05314.villa-bosch.de at Wed Feb  5 13:52:29 2020
Module time:
	user time   =       1.56 seconds =       0.03 minutes
	system time =       0.03 seconds =       0.00 minutes
	total time  =          2 seconds =       0.03 minutes
Total time:
	user time   =       1.56 seconds =       0.03 minutes
	system time =       0.03 seconds =       0.00 minutes
	total time  =          2 seconds =       0.03 minutes

    Psi4 stopped on: Wednesday, 05 February 2020 01:52PM
    Psi4 wall time for execution: 0:00:01.62

*** Psi4 exiting successfully. Buy a developer a beer!
