                               Psi4 1.3.2 release

  ==> Input File <==

--------------------------------------------------------------------------

# PYTHONPATH must include directory above plugin directory.
#     Define either externally or here, then import plugin.

molecule {
  O   0.27681793323501      0.00000014791107      0.00000000000000
  H   0.86159097690242      0.76505117501585      0.00000000000000
  H   0.86159108986257     -0.76505132292693      0.00000000000000
symmetry c1
}

set {
  basis def2-TZVP
}

set scf {
 reference uks
}

energy('REVTPSS')
--------------------------------------------------------------------------

    Molecular point group: c1

    Geometry (in Angstrom), charge = 0, multiplicity = 1:

       Center              X                  Y                   Z               Mass
    ------------   -----------------  -----------------  -----------------  -----------------
         O           -0.065444807405     0.000000024830     0.000000000000    15.994914619570
         H            0.519328236262     0.765051051935     0.000000000000     1.007825032230
         H            0.519328349222    -0.765051446008     0.000000000000     1.007825032230

  Charge       = 0
  Multiplicity = 1
  Basis Set: DEF2-TZVP
    Blend: DEF2-TZVP
  Basis Set: (DEF2-TZVP AUX)
    Blend: DEF2-TZVP-JKFIT

    Orbital Energies [Eh]
    ---------------------

    Alpha Occupied:

       1A    -18.912706     2A     -0.947710     3A     -0.484180
       4A     -0.337938     5A     -0.260296

    Alpha Virtual:

       6A      0.011972     7A      0.086537     8A      0.344595
       9A      0.394447    10A      0.418867    11A      0.421564
      12A      0.557901    13A      0.585467    14A      1.153965
      15A      1.174554    16A      1.281841    17A      1.517135
      18A      1.621065    19A      1.750569    20A      1.991301
      21A      2.052858    22A      2.102892    23A      2.292592
      24A      2.384878    25A      2.562015    26A      2.594869
      27A      2.596353    28A      2.764623    29A      3.657073
      30A      3.975540    31A      5.133416    32A      5.232275
      33A      5.417166    34A      5.430282    35A      5.503021
      36A      6.040106    37A      6.205920    38A      6.282734
      39A      6.352505    40A      6.392772    41A      6.990940
      42A      7.056238    43A     43.415127

    Beta Occupied:

       1A    -18.912706     2A     -0.947710     3A     -0.484180
       4A     -0.337938     5A     -0.260296

    Beta Virtual:

       6A      0.011972     7A      0.086537     8A      0.344595
       9A      0.394447    10A      0.418867    11A      0.421564
      12A      0.557901    13A      0.585467    14A      1.153965
      15A      1.174554    16A      1.281841    17A      1.517135
      18A      1.621065    19A      1.750569    20A      1.991301
      21A      2.052858    22A      2.102892    23A      2.292592
      24A      2.384878    25A      2.562015    26A      2.594869
      27A      2.596353    28A      2.764623    29A      3.657073
      30A      3.975540    31A      5.133416    32A      5.232275
      33A      5.417166    34A      5.430282    35A      5.503021
      36A      6.040106    37A      6.205920    38A      6.282734
      39A      6.352505    40A      6.392772    41A      6.990940
      42A      7.056238    43A     43.415127

    Final Occupation by Irrep:
              A
    DOCC [     5 ]
    SOCC [     0 ]

  @DF-UKS Final Energy:   -76.43074296890043

   => Energetics <=

    Nuclear Repulsion Energy =              9.1384915739382020
    One-Electron Energy =                -122.9542719199215952
    Two-Electron Energy =                  46.6914917226277453
    DFT Exchange-Correlation Energy =      -9.3064543455447861
    Empirical Dispersion Energy =           0.0000000000000000
    VV10 Nonlocal Energy =                  0.0000000000000000
    Total Energy =                        -76.4307429689004323

  UHF NO Occupations:
  HONO-2 :    3  A 2.0000000
  HONO-1 :    4  A 2.0000000
  HONO-0 :    5  A 2.0000000
  LUNO+0 :    6  A 0.0000000
  LUNO+1 :    7  A 0.0000000
  LUNO+2 :    8  A 0.0000000
  LUNO+3 :    9  A 0.0000000

Computation Completed

Properties will be evaluated at   0.000000,   0.000000,   0.000000 [a0]

Properties computed using the SCF density matrix

  Nuclear Dipole Moment: [e a0]
     X:     0.9734      Y:    -0.0000      Z:     0.0000

  Electronic Dipole Moment: [e a0]
     X:    -0.1821      Y:     0.0000      Z:    -0.0000

  Dipole Moment: [e a0]
     X:     0.7913      Y:    -0.0000      Z:    -0.0000     Total:     0.7913

  Dipole Moment: [D]
     X:     2.0114      Y:    -0.0000      Z:    -0.0000     Total:     2.0114

*** tstop() called on rh05314.villa-bosch.de at Wed Feb  5 14:14:21 2020
Module time:
	user time   =       1.95 seconds =       0.03 minutes
	system time =       0.07 seconds =       0.00 minutes
	total time  =          2 seconds =       0.03 minutes
Total time:
	user time   =       1.95 seconds =       0.03 minutes
	system time =       0.07 seconds =       0.00 minutes
	total time  =          2 seconds =       0.03 minutes

    Psi4 stopped on: Wednesday, 05 February 2020 02:14PM
    Psi4 wall time for execution: 0:00:02.04

*** Psi4 exiting successfully. Buy a developer a beer!
