                               Psi4 1.3.2 release

  ==> Input File <==

--------------------------------------------------------------------------

# PYTHONPATH must include directory above plugin directory.
#     Define either externally or here, then import plugin.

molecule {
  C    0.00000001055502      0.00000000005674     -0.00000000975578
  O   -0.00000000527751      1.15997617530518      0.00000000487789
  O   -0.00000000527751     -1.15997617536192      0.00000000487789
symmetry c1
}

set {
  basis def2-TZVP
}

set scf {
 reference uks
}

energy('CAM-B3LYP')
--------------------------------------------------------------------------

    Molecular point group: c1

    Geometry (in Angstrom), charge = 0, multiplicity = 1:

       Center              X                  Y                   Z               Mass
    ------------   -----------------  -----------------  -----------------  -----------------
         C            0.000000011514     0.000000010642     0.000000000062    12.000000000000
         O            0.000000011514     0.000000010642     1.159976175310    15.994914619570
         O           -0.000000020151    -0.000000018626    -1.159976175357    15.994914619570

  Charge       = 0
  Multiplicity = 1
  Basis Set: DEF2-TZVP
    Blend: DEF2-TZVP
  Basis Set: (DEF2-TZVP AUX)
    Blend: DEF2-TZVP-JKFIT

    Orbital Energies [Eh]
    ---------------------

    Alpha Occupied:

       1A    -19.286559     2A    -19.286542     3A    -10.444266
       4A     -1.252560     5A     -1.210427     6A     -0.643702
       7A     -0.600773     8A     -0.600773     9A     -0.600481
      10A     -0.446710    11A     -0.446710

    Alpha Virtual:

      12A      0.057019    13A      0.080248    14A      0.080248
      15A      0.199610    16A      0.220527    17A      0.220527
      18A      0.344097    19A      0.399798    20A      0.459137
      21A      0.472605    22A      0.472605    23A      0.637999
      24A      0.637999    25A      0.638370    26A      0.638370
      27A      0.760044    28A      0.860867    29A      0.998757
      30A      1.032359    31A      1.032359    32A      1.330283
      33A      1.353363    34A      1.353363    35A      1.392251
      36A      1.445640    37A      1.445640    38A      1.720338
      39A      1.720338    40A      1.737646    41A      1.960677
      42A      1.960677    43A      2.062813    44A      2.062813
      45A      2.285383    46A      2.479679    47A      2.639614
      48A      2.639614    49A      2.735524    50A      2.735524
      51A      2.794227    52A      2.794227    53A      2.889759
      54A      2.889759    55A      2.931971    56A      2.972480
      57A      2.972480    58A      3.090729    59A      3.363924
      60A      3.401956    61A      3.401956    62A      3.669595
      63A      3.871809    64A      3.871809    65A      4.876382
      66A      4.888862    67A      5.131860    68A      5.131860
      69A      5.201040    70A      5.201040    71A      5.255133
      72A      5.255133    73A      5.856700    74A      5.856700
      75A      6.072865    76A      6.191996    77A      6.191996
      78A      6.333118    79A      6.333131    80A      6.345714
      81A      6.345725    82A      6.502647    83A      6.502647
      84A      6.790731    85A      6.790731    86A      6.918523
      87A      7.064328    88A      7.064328    89A      7.429662
      90A      7.581788    91A     23.977327    92A     43.896895
      93A     44.059090

    Beta Occupied:

       1A    -19.286559     2A    -19.286542     3A    -10.444266
       4A     -1.252560     5A     -1.210427     6A     -0.643702
       7A     -0.600773     8A     -0.600773     9A     -0.600481
      10A     -0.446710    11A     -0.446710

    Beta Virtual:

      12A      0.057019    13A      0.080248    14A      0.080248
      15A      0.199610    16A      0.220527    17A      0.220527
      18A      0.344097    19A      0.399798    20A      0.459137
      21A      0.472605    22A      0.472605    23A      0.637999
      24A      0.637999    25A      0.638370    26A      0.638370
      27A      0.760044    28A      0.860867    29A      0.998757
      30A      1.032359    31A      1.032359    32A      1.330283
      33A      1.353363    34A      1.353363    35A      1.392251
      36A      1.445640    37A      1.445640    38A      1.720338
      39A      1.720338    40A      1.737646    41A      1.960677
      42A      1.960677    43A      2.062813    44A      2.062813
      45A      2.285383    46A      2.479679    47A      2.639614
      48A      2.639614    49A      2.735524    50A      2.735524
      51A      2.794227    52A      2.794227    53A      2.889759
      54A      2.889759    55A      2.931971    56A      2.972480
      57A      2.972480    58A      3.090729    59A      3.363924
      60A      3.401956    61A      3.401956    62A      3.669595
      63A      3.871809    64A      3.871809    65A      4.876382
      66A      4.888862    67A      5.131860    68A      5.131860
      69A      5.201040    70A      5.201040    71A      5.255133
      72A      5.255133    73A      5.856700    74A      5.856700
      75A      6.072865    76A      6.191996    77A      6.191996
      78A      6.333118    79A      6.333131    80A      6.345714
      81A      6.345725    82A      6.502647    83A      6.502647
      84A      6.790731    85A      6.790731    86A      6.918523
      87A      7.064328    88A      7.064328    89A      7.429662
      90A      7.581788    91A     23.977327    92A     43.896895
      93A     44.059090

    Final Occupation by Irrep:
              A
    DOCC [    11 ]
    SOCC [     0 ]

  @DF-UKS Final Energy:  -188.60365030926840

   => Energetics <=

    Nuclear Repulsion Energy =             58.3931673823239947
    One-Electron Energy =                -372.9160978995589630
    Two-Electron Energy =                 142.5662998190021824
    DFT Exchange-Correlation Energy =     -16.6470196110356099
    Empirical Dispersion Energy =           0.0000000000000000
    VV10 Nonlocal Energy =                  0.0000000000000000
    Total Energy =                       -188.6036503092683745

  UHF NO Occupations:
  HONO-2 :    9  A 2.0000000
  HONO-1 :   10  A 2.0000000
  HONO-0 :   11  A 2.0000000
  LUNO+0 :   12  A 0.0000000
  LUNO+1 :   13  A 0.0000000
  LUNO+2 :   14  A 0.0000000
  LUNO+3 :   15  A 0.0000000

Computation Completed

Properties will be evaluated at   0.000000,   0.000000,   0.000000 [a0]

Properties computed using the SCF density matrix

  Nuclear Dipole Moment: [e a0]
     X:    -0.0000      Y:    -0.0000      Z:    -0.0000

  Electronic Dipole Moment: [e a0]
     X:     0.0000      Y:     0.0000      Z:     0.0000

  Dipole Moment: [e a0]
     X:     0.0000      Y:     0.0000      Z:     0.0000     Total:     0.0000

  Dipole Moment: [D]
     X:     0.0000      Y:     0.0000      Z:     0.0000     Total:     0.0000

*** tstop() called on rh05314.villa-bosch.de at Wed Feb  5 13:52:16 2020
Module time:
	user time   =       2.40 seconds =       0.04 minutes
	system time =       0.07 seconds =       0.00 minutes
	total time  =          3 seconds =       0.05 minutes
Total time:
	user time   =       2.40 seconds =       0.04 minutes
	system time =       0.07 seconds =       0.00 minutes
	total time  =          3 seconds =       0.05 minutes

    Psi4 stopped on: Wednesday, 05 February 2020 01:52PM
    Psi4 wall time for execution: 0:00:02.50

*** Psi4 exiting successfully. Buy a developer a beer!
