                               Psi4 1.3.2 release

  ==> Input File <==

--------------------------------------------------------------------------

# PYTHONPATH must include directory above plugin directory.
#     Define either externally or here, then import plugin.
import psixas

molecule {
  N   -1.22651784160217      0.40019879988830      0.01704879881164
  H   -0.43885155782371      0.15100232225883      0.60864221052405
  H   -0.88355924463589      1.09440986479077     -0.64102616291803
  H   -1.44986135593823     -0.42747098693791     -0.52829484641767
symmetry c1
}

set {
  basis 6-31G*
}

set scf {
 reference uks
 scf_type DISK_DF
}

energy('PBE')
--------------------------------------------------------------------------

    Molecular point group: c1

    Geometry (in Angstrom), charge = 0, multiplicity = 1:

       Center              X                  Y                   Z               Mass
    ------------   -----------------  -----------------  -----------------  -----------------
         N           -0.053703241151     0.022649891445     0.036214781014    14.003074004430
         H            0.733963042628    -0.226546586185     0.627808192726     1.007825032230
         H            0.289255355816     0.716860956347    -0.621860180716     1.007825032230
         H           -0.277046755487    -0.805019895381    -0.509128864215     1.007825032230

  Charge       = 0
  Multiplicity = 1
  Basis Set: 6-31G*
    Blend: 6-31G*
  Basis Set: (6-31G* AUX)
    Blend: CC-PVDZ-JKFIT

    Orbital Energies [Eh]
    ---------------------

    Alpha Occupied:

       1A    -13.969374     2A     -0.765439     3A     -0.401540
       4A     -0.401498     5A     -0.197247

    Alpha Virtual:

       6A      0.059348     7A      0.144204     8A      0.144239
       9A      0.646985    10A      0.647008    11A      0.679077
      12A      0.864786    13A      0.864851    14A      0.867541
      15A      1.104588    16A      1.602669    17A      1.602684
      18A      1.880362    19A      2.326789    20A      2.326909
      21A      3.585985

    Beta Occupied:

       1A    -13.969374     2A     -0.765439     3A     -0.401540
       4A     -0.401498     5A     -0.197247

    Beta Virtual:

       6A      0.059348     7A      0.144204     8A      0.144239
       9A      0.646985    10A      0.647008    11A      0.679077
      12A      0.864786    13A      0.864851    14A      0.867541
      15A      1.104588    16A      1.602669    17A      1.602684
      18A      1.880362    19A      2.326789    20A      2.326909
      21A      3.585985

    Final Occupation by Irrep:
              A
    DOCC [     5 ]
    SOCC [     0 ]

  @DF-UKS Final Energy:   -56.47019746103012

   => Energetics <=

    Nuclear Repulsion Energy =             11.9118590025880593
    One-Electron Energy =                 -99.6138856083055657
    Two-Electron Energy =                  39.1829786932391926
    DFT Exchange-Correlation Energy =      -7.9511495485518067
    Empirical Dispersion Energy =           0.0000000000000000
    VV10 Nonlocal Energy =                  0.0000000000000000
    Total Energy =                        -56.4701974610301178

  UHF NO Occupations:
  HONO-2 :    3  A 2.0000000
  HONO-1 :    4  A 2.0000000
  HONO-0 :    5  A 2.0000000
  LUNO+0 :    6  A 0.0000000
  LUNO+1 :    7  A 0.0000000
  LUNO+2 :    8  A 0.0000000
  LUNO+3 :    9  A 0.0000000

Computation Completed

Properties will be evaluated at   0.000000,   0.000000,   0.000000 [a0]

Properties computed using the SCF density matrix

  Nuclear Dipole Moment: [e a0]
     X:     0.6997      Y:    -0.2951      Z:    -0.4718

  Electronic Dipole Moment: [e a0]
     X:    -0.1241      Y:     0.0522      Z:     0.0837

  Dipole Moment: [e a0]
     X:     0.5755      Y:    -0.2429      Z:    -0.3882     Total:     0.7355

  Dipole Moment: [D]
     X:     1.4629      Y:    -0.6173      Z:    -0.9866     Total:     1.8693

*** tstop() called on rh05314.villa-bosch.de at Wed Feb  5 13:43:23 2020
Module time:
	user time   =       1.05 seconds =       0.02 minutes
	system time =       0.03 seconds =       0.00 minutes
	total time  =          1 seconds =       0.02 minutes
Total time:
	user time   =       1.05 seconds =       0.02 minutes
	system time =       0.03 seconds =       0.00 minutes
	total time  =          1 seconds =       0.02 minutes

    Psi4 stopped on: Wednesday, 05 February 2020 01:43PM
    Psi4 wall time for execution: 0:00:01.27

*** Psi4 exiting successfully. Buy a developer a beer!
