                               Psi4 1.3.2 release

  ==> Input File <==

--------------------------------------------------------------------------

# PYTHONPATH must include directory above plugin directory.
#     Define either externally or here, then import plugin.

molecule {
  O   0.27681793323501      0.00000014791107      0.00000000000000
  H   0.86159097690242      0.76505117501585      0.00000000000000
  H   0.86159108986257     -0.76505132292693      0.00000000000000
symmetry c1
}

set {
  basis def2-TZVP
}

set scf {
 reference uks
}

energy('PBE')
--------------------------------------------------------------------------

    Molecular point group: c1

    Geometry (in Angstrom), charge = 0, multiplicity = 1:

       Center              X                  Y                   Z               Mass
    ------------   -----------------  -----------------  -----------------  -----------------
         O           -0.065444807405     0.000000024830     0.000000000000    15.994914619570
         H            0.519328236262     0.765051051935     0.000000000000     1.007825032230
         H            0.519328349222    -0.765051446008     0.000000000000     1.007825032230

  Charge       = 0
  Multiplicity = 1
  Basis Set: DEF2-TZVP
    Blend: DEF2-TZVP
  Basis Set: (DEF2-TZVP AUX)
    Blend: DEF2-TZVP-JKFIT

    Orbital Energies [Eh]
    ---------------------

    Alpha Occupied:

       1A    -18.744203     2A     -0.922669     3A     -0.478806
       4A     -0.331844     5A     -0.256046

    Alpha Virtual:

       6A     -0.001746     7A      0.073415     8A      0.328905
       9A      0.377551    10A      0.398250    11A      0.400288
      12A      0.535164    13A      0.566644    14A      1.109503
      15A      1.128169    16A      1.236777    17A      1.470145
      18A      1.572878    19A      1.684397    20A      1.915224
      21A      1.984698    22A      2.035419    23A      2.215091
      24A      2.309487    25A      2.490289    26A      2.521634
      27A      2.522172    28A      2.691388    29A      3.545024
      30A      3.833933    31A      4.985387    32A      5.083517
      33A      5.262515    34A      5.284417    35A      5.351787
      36A      5.899391    37A      6.085727    38A      6.175618
      39A      6.240982    40A      6.287510    41A      6.781577
      42A      6.860082    43A     42.861302

    Beta Occupied:

       1A    -18.744203     2A     -0.922669     3A     -0.478806
       4A     -0.331844     5A     -0.256046

    Beta Virtual:

       6A     -0.001746     7A      0.073415     8A      0.328905
       9A      0.377551    10A      0.398250    11A      0.400288
      12A      0.535164    13A      0.566644    14A      1.109503
      15A      1.128169    16A      1.236777    17A      1.470145
      18A      1.572878    19A      1.684397    20A      1.915224
      21A      1.984698    22A      2.035419    23A      2.215091
      24A      2.309487    25A      2.490289    26A      2.521634
      27A      2.522172    28A      2.691388    29A      3.545024
      30A      3.833933    31A      4.985387    32A      5.083517
      33A      5.262515    34A      5.284417    35A      5.351787
      36A      5.899391    37A      6.085727    38A      6.175618
      39A      6.240982    40A      6.287510    41A      6.781577
      42A      6.860082    43A     42.861302

    Final Occupation by Irrep:
              A
    DOCC [     5 ]
    SOCC [     0 ]

  @DF-UKS Final Energy:   -76.37667772719178

   => Energetics <=

    Nuclear Repulsion Energy =              9.1384915739382020
    One-Electron Energy =                -122.9635132434784452
    Two-Electron Energy =                  46.6964246053334904
    DFT Exchange-Correlation Energy =      -9.2480806629850161
    Empirical Dispersion Energy =           0.0000000000000000
    VV10 Nonlocal Energy =                  0.0000000000000000
    Total Energy =                        -76.3766777271917761

  UHF NO Occupations:
  HONO-2 :    3  A 2.0000000
  HONO-1 :    4  A 2.0000000
  HONO-0 :    5  A 2.0000000
  LUNO+0 :    6  A 0.0000000
  LUNO+1 :    7  A 0.0000000
  LUNO+2 :    8  A 0.0000000
  LUNO+3 :    9  A 0.0000000

Computation Completed

Properties will be evaluated at   0.000000,   0.000000,   0.000000 [a0]

Properties computed using the SCF density matrix

  Nuclear Dipole Moment: [e a0]
     X:     0.9734      Y:    -0.0000      Z:     0.0000

  Electronic Dipole Moment: [e a0]
     X:    -0.1789      Y:     0.0000      Z:    -0.0000

  Dipole Moment: [e a0]
     X:     0.7945      Y:    -0.0000      Z:    -0.0000     Total:     0.7945

  Dipole Moment: [D]
     X:     2.0193      Y:    -0.0000      Z:    -0.0000     Total:     2.0193

*** tstop() called on rh05314.villa-bosch.de at Wed Feb  5 13:43:20 2020
Module time:
	user time   =       1.15 seconds =       0.02 minutes
	system time =       0.00 seconds =       0.00 minutes
	total time  =          1 seconds =       0.02 minutes
Total time:
	user time   =       1.15 seconds =       0.02 minutes
	system time =       0.00 seconds =       0.00 minutes
	total time  =          1 seconds =       0.02 minutes

    Psi4 stopped on: Wednesday, 05 February 2020 01:43PM
    Psi4 wall time for execution: 0:00:01.19

*** Psi4 exiting successfully. Buy a developer a beer!
