                               Psi4 1.3.2 release

  ==> Input File <==

--------------------------------------------------------------------------

# PYTHONPATH must include directory above plugin directory.
#     Define either externally or here, then import plugin.

molecule {
  C    0.00000001055502      0.00000000005674     -0.00000000975578
  O   -0.00000000527751      1.15997617530518      0.00000000487789
  O   -0.00000000527751     -1.15997617536192      0.00000000487789
symmetry c1
}

set {
  basis def2-TZVP
}

set scf {
 reference uks
}

energy('PBE')
--------------------------------------------------------------------------

    Molecular point group: c1

    Geometry (in Angstrom), charge = 0, multiplicity = 1:

       Center              X                  Y                   Z               Mass
    ------------   -----------------  -----------------  -----------------  -----------------
         C            0.000000011514     0.000000010642     0.000000000062    12.000000000000
         O            0.000000011514     0.000000010642     1.159976175310    15.994914619570
         O           -0.000000020151    -0.000000018626    -1.159976175357    15.994914619570

  Charge       = 0
  Multiplicity = 1
  Basis Set: DEF2-TZVP
    Blend: DEF2-TZVP
  Basis Set: (DEF2-TZVP AUX)
    Blend: DEF2-TZVP-JKFIT

    Orbital Energies [Eh]
    ---------------------

    Alpha Occupied:

       1A    -18.828720     2A    -18.828710     3A    -10.053849
       4A     -1.071423     5A     -1.034592     6A     -0.504229
       7A     -0.467421     8A     -0.467421     9A     -0.464199
      10A     -0.331777    11A     -0.331777

    Alpha Virtual:

      12A     -0.007607    13A     -0.007607    14A     -0.004734
      15A      0.149325    16A      0.166336    17A      0.166336
      18A      0.250996    19A      0.332552    20A      0.392093
      21A      0.397931    22A      0.397931    23A      0.550089
      24A      0.550089    25A      0.560565    26A      0.560565
      27A      0.678703    28A      0.779453    29A      0.862893
      30A      0.917917    31A      0.917917    32A      1.230995
      33A      1.251009    34A      1.251009    35A      1.295178
      36A      1.317164    37A      1.317164    38A      1.587928
      39A      1.587928    40A      1.624089    41A      1.822074
      42A      1.822074    43A      1.934111    44A      1.934111
      45A      2.145747    46A      2.343193    47A      2.508262
      48A      2.508262    49A      2.582269    50A      2.582269
      51A      2.647069    52A      2.647069    53A      2.750603
      54A      2.750604    55A      2.780777    56A      2.823265
      57A      2.823266    58A      2.945515    59A      3.227132
      60A      3.240880    61A      3.240880    62A      3.512676
      63A      3.720760    64A      3.720760    65A      4.698426
      66A      4.726270    67A      4.944712    68A      4.944712
      69A      5.013950    70A      5.013950    71A      5.067399
      72A      5.067401    73A      5.667298    74A      5.667299
      75A      5.884332    76A      6.000825    77A      6.000825
      78A      6.135180    79A      6.135196    80A      6.149365
      81A      6.149378    82A      6.310654    83A      6.310654
      84A      6.605911    85A      6.605911    86A      6.721819
      87A      6.869485    88A      6.869485    89A      7.233119
      90A      7.392123    91A     23.685958    92A     43.481085
      93A     43.642955

    Beta Occupied:

       1A    -18.828720     2A    -18.828710     3A    -10.053849
       4A     -1.071423     5A     -1.034592     6A     -0.504229
       7A     -0.467421     8A     -0.467421     9A     -0.464199
      10A     -0.331777    11A     -0.331777

    Beta Virtual:

      12A     -0.007607    13A     -0.007607    14A     -0.004734
      15A      0.149325    16A      0.166336    17A      0.166336
      18A      0.250996    19A      0.332552    20A      0.392093
      21A      0.397931    22A      0.397931    23A      0.550089
      24A      0.550089    25A      0.560565    26A      0.560565
      27A      0.678703    28A      0.779453    29A      0.862893
      30A      0.917917    31A      0.917917    32A      1.230995
      33A      1.251009    34A      1.251009    35A      1.295178
      36A      1.317164    37A      1.317164    38A      1.587928
      39A      1.587928    40A      1.624089    41A      1.822074
      42A      1.822074    43A      1.934111    44A      1.934111
      45A      2.145747    46A      2.343193    47A      2.508262
      48A      2.508262    49A      2.582269    50A      2.582269
      51A      2.647069    52A      2.647069    53A      2.750603
      54A      2.750604    55A      2.780777    56A      2.823265
      57A      2.823266    58A      2.945515    59A      3.227132
      60A      3.240880    61A      3.240880    62A      3.512676
      63A      3.720760    64A      3.720760    65A      4.698426
      66A      4.726270    67A      4.944712    68A      4.944712
      69A      5.013950    70A      5.013950    71A      5.067399
      72A      5.067401    73A      5.667298    74A      5.667299
      75A      5.884332    76A      6.000825    77A      6.000825
      78A      6.135180    79A      6.135196    80A      6.149365
      81A      6.149378    82A      6.310654    83A      6.310654
      84A      6.605911    85A      6.605911    86A      6.721819
      87A      6.869485    88A      6.869485    89A      7.233119
      90A      7.392123    91A     23.685958    92A     43.481085
      93A     43.642955

    Final Occupation by Irrep:
              A
    DOCC [    11 ]
    SOCC [     0 ]

  @DF-UKS Final Energy:  -188.47881562690748

   => Energetics <=

    Nuclear Repulsion Energy =             58.3931673823239947
    One-Electron Energy =                -372.9889991598844290
    Two-Electron Energy =                 148.4935094404485199
    DFT Exchange-Correlation Energy =     -22.3764932897955582
    Empirical Dispersion Energy =           0.0000000000000000
    VV10 Nonlocal Energy =                  0.0000000000000000
    Total Energy =                       -188.4788156269074477

  UHF NO Occupations:
  HONO-2 :    9  A 2.0000000
  HONO-1 :   10  A 2.0000000
  HONO-0 :   11  A 2.0000000
  LUNO+0 :   12  A 0.0000000
  LUNO+1 :   13  A 0.0000000
  LUNO+2 :   14  A 0.0000000
  LUNO+3 :   15  A 0.0000000

Computation Completed

Properties will be evaluated at   0.000000,   0.000000,   0.000000 [a0]

Properties computed using the SCF density matrix

  Nuclear Dipole Moment: [e a0]
     X:    -0.0000      Y:    -0.0000      Z:    -0.0000

  Electronic Dipole Moment: [e a0]
     X:     0.0000      Y:     0.0000      Z:    -0.0000

  Dipole Moment: [e a0]
     X:     0.0000      Y:     0.0000      Z:    -0.0000     Total:     0.0000

  Dipole Moment: [D]
     X:     0.0000      Y:     0.0000      Z:    -0.0000     Total:     0.0000

*** tstop() called on rh05314.villa-bosch.de at Wed Feb  5 13:43:17 2020
Module time:
	user time   =       1.94 seconds =       0.03 minutes
	system time =       0.06 seconds =       0.00 minutes
	total time  =          2 seconds =       0.03 minutes
Total time:
	user time   =       1.94 seconds =       0.03 minutes
	system time =       0.06 seconds =       0.00 minutes
	total time  =          2 seconds =       0.03 minutes

    Psi4 stopped on: Wednesday, 05 February 2020 01:43PM
    Psi4 wall time for execution: 0:00:02.01

*** Psi4 exiting successfully. Buy a developer a beer!
