                               Psi4 1.3.2 release

  ==> Input File <==

--------------------------------------------------------------------------

# PYTHONPATH must include directory above plugin directory.
#     Define either externally or here, then import plugin.
import psixas

molecule {
  N   -1.22651784160217      0.40019879988830      0.01704879881164
  H   -0.43885155782371      0.15100232225883      0.60864221052405
  H   -0.88355924463589      1.09440986479077     -0.64102616291803
  H   -1.44986135593823     -0.42747098693791     -0.52829484641767
symmetry c1
}

set {
  basis def2-tzvp
}

set scf {
 reference uks
 scf_type DF
}

energy('B3LYP')
--------------------------------------------------------------------------

    Molecular point group: c1

    Geometry (in Angstrom), charge = 0, multiplicity = 1:

       Center              X                  Y                   Z               Mass
    ------------   -----------------  -----------------  -----------------  -----------------
         N           -0.053703241151     0.022649891445     0.036214781014    14.003074004430
         H            0.733963042628    -0.226546586185     0.627808192726     1.007825032230
         H            0.289255355816     0.716860956347    -0.621860180716     1.007825032230
         H           -0.277046755487    -0.805019895381    -0.509128864215     1.007825032230

  Charge       = 0
  Multiplicity = 1
  Basis Set: DEF2-TZVP
    Blend: DEF2-TZVP
  Basis Set: (DEF2-TZVP AUX)
    Blend: DEF2-TZVP-JKFIT

    Orbital Energies [Eh]
    ---------------------

    Alpha Occupied:

       1A    -14.293273     2A     -0.853710     3A     -0.462564
       4A     -0.462519     5A     -0.270371

    Alpha Virtual:

       6A      0.022785     7A      0.105754     8A      0.105767
       9A      0.295782    10A      0.295805    11A      0.348814
      12A      0.450999    13A      0.500328    14A      0.518145
      15A      0.518185    16A      0.902659    17A      0.902681
      18A      1.135442    19A      1.243592    20A      1.243617
      21A      1.601403    22A      1.717639    23A      1.717650
      24A      1.783988    25A      1.958652    26A      2.018913
      27A      2.018948    28A      2.296619    29A      2.320817
      30A      2.320889    31A      2.412809    32A      2.473993
      33A      2.474140    34A      3.004537    35A      3.225907
      36A      3.226040    37A      4.037123    38A      4.278358
      39A      4.278466    40A      4.411723    41A      4.587765
      42A      4.587821    43A      4.599611    44A      4.854027
      45A      4.854097    46A      5.369421    47A      5.369502
      48A      5.714713    49A     31.472877

    Beta Occupied:

       1A    -14.293273     2A     -0.853710     3A     -0.462564
       4A     -0.462519     5A     -0.270371

    Beta Virtual:

       6A      0.022785     7A      0.105754     8A      0.105767
       9A      0.295782    10A      0.295805    11A      0.348814
      12A      0.450999    13A      0.500328    14A      0.518145
      15A      0.518185    16A      0.902659    17A      0.902681
      18A      1.135442    19A      1.243592    20A      1.243617
      21A      1.601403    22A      1.717639    23A      1.717650
      24A      1.783988    25A      1.958652    26A      2.018913
      27A      2.018948    28A      2.296619    29A      2.320817
      30A      2.320889    31A      2.412809    32A      2.473993
      33A      2.474140    34A      3.004537    35A      3.225907
      36A      3.226040    37A      4.037123    38A      4.278358
      39A      4.278466    40A      4.411723    41A      4.587765
      42A      4.587821    43A      4.599611    44A      4.854027
      45A      4.854097    46A      5.369421    47A      5.369502
      48A      5.714713    49A     31.472877

    Final Occupation by Irrep:
              A
    DOCC [     5 ]
    SOCC [     0 ]

  @DF-UKS Final Energy:   -56.58567760144430

   => Energetics <=

    Nuclear Repulsion Energy =             11.9118590025880593
    One-Electron Energy =                 -99.6373072259976311
    Two-Electron Energy =                  37.6407896522275180
    DFT Exchange-Correlation Energy =      -6.5010190302622366
    Empirical Dispersion Energy =           0.0000000000000000
    VV10 Nonlocal Energy =                  0.0000000000000000
    Total Energy =                        -56.5856776014442886

  UHF NO Occupations:
  HONO-2 :    3  A 2.0000000
  HONO-1 :    4  A 2.0000000
  HONO-0 :    5  A 2.0000000
  LUNO+0 :    6  A 0.0000000
  LUNO+1 :    7  A 0.0000000
  LUNO+2 :    8  A 0.0000000
  LUNO+3 :    9  A 0.0000000

Computation Completed

Properties will be evaluated at   0.000000,   0.000000,   0.000000 [a0]

Properties computed using the SCF density matrix

  Nuclear Dipole Moment: [e a0]
     X:     0.6997      Y:    -0.2951      Z:    -0.4718

  Electronic Dipole Moment: [e a0]
     X:    -0.1701      Y:     0.0717      Z:     0.1147

  Dipole Moment: [e a0]
     X:     0.5295      Y:    -0.2234      Z:    -0.3571     Total:     0.6767

  Dipole Moment: [D]
     X:     1.3459      Y:    -0.5679      Z:    -0.9077     Total:     1.7199

*** tstop() called on rh05314.villa-bosch.de at Wed Feb  5 13:43:40 2020
Module time:
	user time   =       1.63 seconds =       0.03 minutes
	system time =       0.07 seconds =       0.00 minutes
	total time  =          1 seconds =       0.02 minutes
Total time:
	user time   =       1.63 seconds =       0.03 minutes
	system time =       0.07 seconds =       0.00 minutes
	total time  =          1 seconds =       0.02 minutes

    Psi4 stopped on: Wednesday, 05 February 2020 01:43PM
    Psi4 wall time for execution: 0:00:01.87

*** Psi4 exiting successfully. Buy a developer a beer!
