                               Psi4 1.3.2 release

  ==> Input File <==

--------------------------------------------------------------------------

# PYTHONPATH must include directory above plugin directory.
#     Define either externally or here, then import plugin.

molecule {
  O   0.27681793323501      0.00000014791107      0.00000000000000
  H   0.86159097690242      0.76505117501585      0.00000000000000
  H   0.86159108986257     -0.76505132292693      0.00000000000000
symmetry c1
}

set {
  basis def2-TZVP
}

set scf {
 reference uks
}

energy('TPSS')
--------------------------------------------------------------------------

    Molecular point group: c1

    Geometry (in Angstrom), charge = 0, multiplicity = 1:

       Center              X                  Y                   Z               Mass
    ------------   -----------------  -----------------  -----------------  -----------------
         O           -0.065444807405     0.000000024830     0.000000000000    15.994914619570
         H            0.519328236262     0.765051051935     0.000000000000     1.007825032230
         H            0.519328349222    -0.765051446008     0.000000000000     1.007825032230

  Charge       = 0
  Multiplicity = 1
  Basis Set: DEF2-TZVP
    Blend: DEF2-TZVP
  Basis Set: (DEF2-TZVP AUX)
    Blend: DEF2-TZVP-JKFIT

    Orbital Energies [Eh]
    ---------------------

    Alpha Occupied:

       1A    -18.880519     2A     -0.944032     3A     -0.484264
       4A     -0.337344     5A     -0.260649

    Alpha Virtual:

       6A      0.006875     7A      0.081356     8A      0.338955
       9A      0.388343    10A      0.412599    11A      0.414932
      12A      0.550806    13A      0.578821    14A      1.137453
      15A      1.156660    16A      1.264416    17A      1.501317
      18A      1.604539    19A      1.722459    20A      1.963377
      21A      2.023566    22A      2.073923    23A      2.262167
      24A      2.353536    25A      2.535925    26A      2.567600
      27A      2.569353    28A      2.738130    29A      3.621872
      30A      3.930312    31A      5.101167    32A      5.198467
      33A      5.381720    34A      5.399111    35A      5.472465
      36A      6.010134    37A      6.180917    38A      6.260472
      39A      6.330176    40A      6.372148    41A      6.941009
      42A      7.007726    43A     43.179215

    Beta Occupied:

       1A    -18.880519     2A     -0.944032     3A     -0.484264
       4A     -0.337344     5A     -0.260649

    Beta Virtual:

       6A      0.006875     7A      0.081356     8A      0.338955
       9A      0.388343    10A      0.412599    11A      0.414932
      12A      0.550806    13A      0.578821    14A      1.137453
      15A      1.156660    16A      1.264416    17A      1.501317
      18A      1.604539    19A      1.722459    20A      1.963377
      21A      2.023566    22A      2.073923    23A      2.262167
      24A      2.353536    25A      2.535925    26A      2.567600
      27A      2.569353    28A      2.738130    29A      3.621872
      30A      3.930312    31A      5.101167    32A      5.198467
      33A      5.381720    34A      5.399111    35A      5.472465
      36A      6.010134    37A      6.180917    38A      6.260472
      39A      6.330176    40A      6.372148    41A      6.941009
      42A      7.007726    43A     43.179215

    Final Occupation by Irrep:
              A
    DOCC [     5 ]
    SOCC [     0 ]

  @DF-UKS Final Energy:   -76.46396506264527

   => Energetics <=

    Nuclear Repulsion Energy =              9.1384915739382020
    One-Electron Energy =                -122.9962159696185893
    Two-Electron Energy =                  46.7379629398978622
    DFT Exchange-Correlation Energy =      -9.3442036068627541
    Empirical Dispersion Energy =           0.0000000000000000
    VV10 Nonlocal Energy =                  0.0000000000000000
    Total Energy =                        -76.4639650626452863

  UHF NO Occupations:
  HONO-2 :    3  A 2.0000000
  HONO-1 :    4  A 2.0000000
  HONO-0 :    5  A 2.0000000
  LUNO+0 :    6  A 0.0000000
  LUNO+1 :    7  A 0.0000000
  LUNO+2 :    8  A 0.0000000
  LUNO+3 :    9  A 0.0000000

Computation Completed

Properties will be evaluated at   0.000000,   0.000000,   0.000000 [a0]

Properties computed using the SCF density matrix

  Nuclear Dipole Moment: [e a0]
     X:     0.9734      Y:    -0.0000      Z:     0.0000

  Electronic Dipole Moment: [e a0]
     X:    -0.1776      Y:     0.0000      Z:    -0.0000

  Dipole Moment: [e a0]
     X:     0.7958      Y:    -0.0000      Z:    -0.0000     Total:     0.7958

  Dipole Moment: [D]
     X:     2.0227      Y:    -0.0000      Z:    -0.0000     Total:     2.0227

*** tstop() called on rh05314.villa-bosch.de at Wed Feb  5 14:14:26 2020
Module time:
	user time   =       1.89 seconds =       0.03 minutes
	system time =       0.05 seconds =       0.00 minutes
	total time  =          2 seconds =       0.03 minutes
Total time:
	user time   =       1.89 seconds =       0.03 minutes
	system time =       0.05 seconds =       0.00 minutes
	total time  =          2 seconds =       0.03 minutes

    Psi4 stopped on: Wednesday, 05 February 2020 02:14PM
    Psi4 wall time for execution: 0:00:01.97

*** Psi4 exiting successfully. Buy a developer a beer!
