                               Psi4 1.3.2 release

  ==> Input File <==

--------------------------------------------------------------------------

# PYTHONPATH must include directory above plugin directory.
#     Define either externally or here, then import plugin.
import psixas

molecule {
  N   -1.22651784160217      0.40019879988830      0.01704879881164
  H   -0.43885155782371      0.15100232225883      0.60864221052405
  H   -0.88355924463589      1.09440986479077     -0.64102616291803
  H   -1.44986135593823     -0.42747098693791     -0.52829484641767
symmetry c1
}

set {
  basis def2-tzvp
}

set scf {
 reference uks
 scf_type DF
}

energy('CAM-B3LYP')
--------------------------------------------------------------------------

    Molecular point group: c1

    Geometry (in Angstrom), charge = 0, multiplicity = 1:

       Center              X                  Y                   Z               Mass
    ------------   -----------------  -----------------  -----------------  -----------------
         N           -0.053703241151     0.022649891445     0.036214781014    14.003074004430
         H            0.733963042628    -0.226546586185     0.627808192726     1.007825032230
         H            0.289255355816     0.716860956347    -0.621860180716     1.007825032230
         H           -0.277046755487    -0.805019895381    -0.509128864215     1.007825032230

  Charge       = 0
  Multiplicity = 1
  Basis Set: DEF2-TZVP
    Blend: DEF2-TZVP
  Basis Set: (DEF2-TZVP AUX)
    Blend: DEF2-TZVP-JKFIT

    Orbital Energies [Eh]
    ---------------------

    Alpha Occupied:

       1A    -14.364022     2A     -0.931973     3A     -0.528430
       4A     -0.528384     5A     -0.336004

    Alpha Virtual:

       6A      0.063465     7A      0.147199     8A      0.147208
       9A      0.347599    10A      0.347622    11A      0.403608
      12A      0.506975    13A      0.555303    14A      0.575624
      15A      0.575665    16A      0.969643    17A      0.969665
      18A      1.202400    19A      1.308204    20A      1.308230
      21A      1.674709    22A      1.790207    23A      1.790217
      24A      1.853450    25A      2.030002    26A      2.089517
      27A      2.089552    28A      2.369159    29A      2.394400
      30A      2.394472    31A      2.485709    32A      2.547760
      33A      2.547909    34A      3.077625    35A      3.300713
      36A      3.300848    37A      4.114603    38A      4.356077
      39A      4.356186    40A      4.488990    41A      4.665292
      42A      4.665348    43A      4.677623    44A      4.931642
      45A      4.931712    46A      5.448154    47A      5.448236
      48A      5.793195    49A     31.533231

    Beta Occupied:

       1A    -14.364022     2A     -0.931973     3A     -0.528430
       4A     -0.528384     5A     -0.336004

    Beta Virtual:

       6A      0.063465     7A      0.147199     8A      0.147208
       9A      0.347599    10A      0.347622    11A      0.403608
      12A      0.506975    13A      0.555303    14A      0.575624
      15A      0.575665    16A      0.969643    17A      0.969665
      18A      1.202400    19A      1.308204    20A      1.308230
      21A      1.674709    22A      1.790207    23A      1.790217
      24A      1.853450    25A      2.030002    26A      2.089517
      27A      2.089552    28A      2.369159    29A      2.394400
      30A      2.394472    31A      2.485709    32A      2.547760
      33A      2.547909    34A      3.077625    35A      3.300713
      36A      3.300848    37A      4.114603    38A      4.356077
      39A      4.356186    40A      4.488990    41A      4.665292
      42A      4.665348    43A      4.677623    44A      4.931642
      45A      4.931712    46A      5.448154    47A      5.448236
      48A      5.793195    49A     31.533231

    Final Occupation by Irrep:
              A
    DOCC [     5 ]
    SOCC [     0 ]

  @DF-UKS Final Energy:   -56.55458572917563

   => Energetics <=

    Nuclear Repulsion Energy =             11.9118590025880593
    One-Electron Energy =                 -99.6328056302191669
    Two-Electron Energy =                  36.9311381316491705
    DFT Exchange-Correlation Energy =      -5.7647772331936951
    Empirical Dispersion Energy =           0.0000000000000000
    VV10 Nonlocal Energy =                  0.0000000000000000
    Total Energy =                        -56.5545857291756349

  UHF NO Occupations:
  HONO-2 :    3  A 2.0000000
  HONO-1 :    4  A 2.0000000
  HONO-0 :    5  A 2.0000000
  LUNO+0 :    6  A 0.0000000
  LUNO+1 :    7  A 0.0000000
  LUNO+2 :    8  A 0.0000000
  LUNO+3 :    9  A 0.0000000

Computation Completed

Properties will be evaluated at   0.000000,   0.000000,   0.000000 [a0]

Properties computed using the SCF density matrix

  Nuclear Dipole Moment: [e a0]
     X:     0.6997      Y:    -0.2951      Z:    -0.4718

  Electronic Dipole Moment: [e a0]
     X:    -0.1591      Y:     0.0670      Z:     0.1073

  Dipole Moment: [e a0]
     X:     0.5406      Y:    -0.2281      Z:    -0.3646     Total:     0.6907

  Dipole Moment: [D]
     X:     1.3739      Y:    -0.5797      Z:    -0.9266     Total:     1.7557

*** tstop() called on rh05314.villa-bosch.de at Wed Feb  5 13:52:37 2020
Module time:
	user time   =       2.23 seconds =       0.04 minutes
	system time =       0.05 seconds =       0.00 minutes
	total time  =          3 seconds =       0.05 minutes
Total time:
	user time   =       2.23 seconds =       0.04 minutes
	system time =       0.05 seconds =       0.00 minutes
	total time  =          3 seconds =       0.05 minutes

    Psi4 stopped on: Wednesday, 05 February 2020 01:52PM
    Psi4 wall time for execution: 0:00:02.49

*** Psi4 exiting successfully. Buy a developer a beer!
