                               Psi4 1.3.2 release

  ==> Input File <==

--------------------------------------------------------------------------

# PYTHONPATH must include directory above plugin directory.
#     Define either externally or here, then import plugin.

molecule {
  O   0.27681793323501      0.00000014791107      0.00000000000000
  H   0.86159097690242      0.76505117501585      0.00000000000000
  H   0.86159108986257     -0.76505132292693      0.00000000000000
symmetry c1
}

set {
  basis def2-TZVP
}

set scf {
 reference uks
}

energy('CAM-B3LYP')
--------------------------------------------------------------------------

    Molecular point group: c1

    Geometry (in Angstrom), charge = 0, multiplicity = 1:

       Center              X                  Y                   Z               Mass
    ------------   -----------------  -----------------  -----------------  -----------------
         O           -0.065444807405     0.000000024830     0.000000000000    15.994914619570
         H            0.519328236262     0.765051051935     0.000000000000     1.007825032230
         H            0.519328349222    -0.765051446008     0.000000000000     1.007825032230

  Charge       = 0
  Multiplicity = 1
  Basis Set: DEF2-TZVP
    Blend: DEF2-TZVP
  Basis Set: (DEF2-TZVP AUX)
    Blend: DEF2-TZVP-JKFIT

    Orbital Energies [Eh]
    ---------------------

    Alpha Occupied:

       1A    -19.198679     2A     -1.092390     3A     -0.603047
       4A     -0.458711     5A     -0.385508

    Alpha Virtual:

       6A      0.056355     7A      0.130629     8A      0.411687
       9A      0.459093    10A      0.482219    11A      0.494569
      12A      0.624090    13A      0.648750    14A      1.234160
      15A      1.254560    16A      1.364544    17A      1.586840
      18A      1.697421    19A      1.816063    20A      2.045419
      21A      2.121219    22A      2.173580    23A      2.347432
      24A      2.450955    25A      2.640476    26A      2.671085
      27A      2.676620    28A      2.840144    29A      3.698249
      30A      3.996552    31A      5.175365    32A      5.273161
      33A      5.452409    34A      5.474294    35A      5.542145
      36A      6.092009    37A      6.281759    38A      6.375273
      39A      6.440647    40A      6.486517    41A      6.976853
      42A      7.055633    43A     43.278233

    Beta Occupied:

       1A    -19.198679     2A     -1.092390     3A     -0.603047
       4A     -0.458711     5A     -0.385508

    Beta Virtual:

       6A      0.056355     7A      0.130629     8A      0.411687
       9A      0.459093    10A      0.482219    11A      0.494569
      12A      0.624090    13A      0.648750    14A      1.234160
      15A      1.254560    16A      1.364544    17A      1.586840
      18A      1.697421    19A      1.816063    20A      2.045419
      21A      2.121219    22A      2.173580    23A      2.347432
      24A      2.450955    25A      2.640476    26A      2.671085
      27A      2.676620    28A      2.840144    29A      3.698249
      30A      3.996552    31A      5.175365    32A      5.273161
      33A      5.452409    34A      5.474294    35A      5.542145
      36A      6.092009    37A      6.281759    38A      6.375273
      39A      6.440647    40A      6.486517    41A      6.976853
      42A      7.055633    43A     43.278233

    Final Occupation by Irrep:
              A
    DOCC [     5 ]
    SOCC [     0 ]

  @DF-UKS Final Energy:   -76.43491973474636

   => Energetics <=

    Nuclear Repulsion Energy =              9.1384915739382020
    One-Electron Energy =                -123.0035696207086175
    Two-Electron Energy =                  44.2504371450427101
    DFT Exchange-Correlation Energy =      -6.8202788330186443
    Empirical Dispersion Energy =           0.0000000000000000
    VV10 Nonlocal Energy =                  0.0000000000000000
    Total Energy =                        -76.4349197347463587

  UHF NO Occupations:
  HONO-2 :    3  A 2.0000000
  HONO-1 :    4  A 2.0000000
  HONO-0 :    5  A 2.0000000
  LUNO+0 :    6  A 0.0000000
  LUNO+1 :    7  A 0.0000000
  LUNO+2 :    8  A 0.0000000
  LUNO+3 :    9  A 0.0000000

Computation Completed

Properties will be evaluated at   0.000000,   0.000000,   0.000000 [a0]

Properties computed using the SCF density matrix

  Nuclear Dipole Moment: [e a0]
     X:     0.9734      Y:    -0.0000      Z:     0.0000

  Electronic Dipole Moment: [e a0]
     X:    -0.1473      Y:     0.0000      Z:    -0.0000

  Dipole Moment: [e a0]
     X:     0.8261      Y:    -0.0000      Z:    -0.0000     Total:     0.8261

  Dipole Moment: [D]
     X:     2.0996      Y:    -0.0000      Z:    -0.0000     Total:     2.0996

*** tstop() called on rh05314.villa-bosch.de at Wed Feb  5 13:52:25 2020
Module time:
	user time   =       1.54 seconds =       0.03 minutes
	system time =       0.03 seconds =       0.00 minutes
	total time  =          1 seconds =       0.02 minutes
Total time:
	user time   =       1.54 seconds =       0.03 minutes
	system time =       0.03 seconds =       0.00 minutes
	total time  =          1 seconds =       0.02 minutes

    Psi4 stopped on: Wednesday, 05 February 2020 01:52PM
    Psi4 wall time for execution: 0:00:01.59

*** Psi4 exiting successfully. Buy a developer a beer!
