                               Psi4 1.3.2 release

  ==> Input File <==

--------------------------------------------------------------------------

# PYTHONPATH must include directory above plugin directory.
#     Define either externally or here, then import plugin.

molecule {
  C    0.00000001055502      0.00000000005674     -0.00000000975578
  O   -0.00000000527751      1.15997617530518      0.00000000487789
  O   -0.00000000527751     -1.15997617536192      0.00000000487789
symmetry c1
}

set {
  basis def2-TZVP
}

set scf {
 reference uks
}

energy('TPSS')
--------------------------------------------------------------------------

    Molecular point group: c1

    Geometry (in Angstrom), charge = 0, multiplicity = 1:

       Center              X                  Y                   Z               Mass
    ------------   -----------------  -----------------  -----------------  -----------------
         C            0.000000011514     0.000000010642     0.000000000062    12.000000000000
         O            0.000000011514     0.000000010642     1.159976175310    15.994914619570
         O           -0.000000020151    -0.000000018626    -1.159976175357    15.994914619570

  Charge       = 0
  Multiplicity = 1
  Basis Set: DEF2-TZVP
    Blend: DEF2-TZVP
  Basis Set: (DEF2-TZVP AUX)
    Blend: DEF2-TZVP-JKFIT

    Orbital Energies [Eh]
    ---------------------

    Alpha Occupied:

       1A    -18.963688     2A    -18.963684     3A    -10.158583
       4A     -1.091038     5A     -1.052006     6A     -0.513912
       7A     -0.470872     8A     -0.470872     9A     -0.469751
      10A     -0.334435    11A     -0.334435

    Alpha Virtual:

      12A     -0.000856    13A     -0.000856    14A      0.004404
      15A      0.156526    16A      0.175627    17A      0.175627
      18A      0.258693    19A      0.345085    20A      0.404802
      21A      0.412481    22A      0.412481    23A      0.565397
      24A      0.565397    25A      0.574816    26A      0.574816
      27A      0.690724    28A      0.790937    29A      0.887473
      30A      0.936304    31A      0.936304    32A      1.253662
      33A      1.277707    34A      1.277707    35A      1.316236
      36A      1.342145    37A      1.342145    38A      1.616364
      39A      1.616364    40A      1.650746    41A      1.853631
      42A      1.853631    43A      1.964720    44A      1.964720
      45A      2.181752    46A      2.382053    47A      2.555219
      48A      2.555219    49A      2.628699    50A      2.628699
      51A      2.689746    52A      2.689746    53A      2.790018
      54A      2.790022    55A      2.827344    56A      2.881329
      57A      2.881330    58A      2.994269    59A      3.281453
      60A      3.299396    61A      3.299396    62A      3.560713
      63A      3.784288    64A      3.784288    65A      4.778758
      66A      4.802217    67A      5.055098    68A      5.055098
      69A      5.125355    70A      5.125355    71A      5.174825
      72A      5.174832    73A      5.771353    74A      5.771353
      75A      5.970657    76A      6.093395    77A      6.093395
      78A      6.218165    79A      6.218235    80A      6.247924
      81A      6.247984    82A      6.418526    83A      6.418526
      84A      6.709465    85A      6.709465    86A      6.814706
      87A      6.984292    88A      6.984292    89A      7.329526
      90A      7.501504    91A     23.907720    92A     43.803690
      93A     43.967064

    Beta Occupied:

       1A    -18.963688     2A    -18.963684     3A    -10.158583
       4A     -1.091038     5A     -1.052006     6A     -0.513912
       7A     -0.470872     8A     -0.470872     9A     -0.469751
      10A     -0.334435    11A     -0.334435

    Beta Virtual:

      12A     -0.000856    13A     -0.000856    14A      0.004404
      15A      0.156526    16A      0.175627    17A      0.175627
      18A      0.258693    19A      0.345085    20A      0.404802
      21A      0.412481    22A      0.412481    23A      0.565397
      24A      0.565397    25A      0.574816    26A      0.574816
      27A      0.690724    28A      0.790937    29A      0.887473
      30A      0.936304    31A      0.936304    32A      1.253662
      33A      1.277707    34A      1.277707    35A      1.316236
      36A      1.342145    37A      1.342145    38A      1.616364
      39A      1.616364    40A      1.650746    41A      1.853631
      42A      1.853631    43A      1.964720    44A      1.964720
      45A      2.181752    46A      2.382053    47A      2.555219
      48A      2.555219    49A      2.628699    50A      2.628699
      51A      2.689746    52A      2.689746    53A      2.790018
      54A      2.790022    55A      2.827344    56A      2.881329
      57A      2.881330    58A      2.994269    59A      3.281453
      60A      3.299396    61A      3.299396    62A      3.560713
      63A      3.784288    64A      3.784288    65A      4.778758
      66A      4.802217    67A      5.055098    68A      5.055098
      69A      5.125355    70A      5.125355    71A      5.174825
      72A      5.174832    73A      5.771353    74A      5.771353
      75A      5.970657    76A      6.093395    77A      6.093395
      78A      6.218165    79A      6.218235    80A      6.247924
      81A      6.247984    82A      6.418526    83A      6.418526
      84A      6.709465    85A      6.709465    86A      6.814706
      87A      6.984292    88A      6.984292    89A      7.329526
      90A      7.501504    91A     23.907720    92A     43.803690
      93A     43.967064

    Final Occupation by Irrep:
              A
    DOCC [    11 ]
    SOCC [     0 ]

  @DF-UKS Final Energy:  -188.69422264997638

   => Energetics <=

    Nuclear Repulsion Energy =             58.3931673823239947
    One-Electron Energy =                -373.0501844225698846
    Two-Electron Energy =                 148.5737969699357279
    DFT Exchange-Correlation Energy =     -22.6110025796662200
    Empirical Dispersion Energy =           0.0000000000000000
    VV10 Nonlocal Energy =                  0.0000000000000000
    Total Energy =                       -188.6942226499763819

  UHF NO Occupations:
  HONO-2 :    9  A 2.0000000
  HONO-1 :   10  A 2.0000000
  HONO-0 :   11  A 2.0000000
  LUNO+0 :   12  A 0.0000000
  LUNO+1 :   13  A 0.0000000
  LUNO+2 :   14  A 0.0000000
  LUNO+3 :   15  A 0.0000000

Computation Completed

Properties will be evaluated at   0.000000,   0.000000,   0.000000 [a0]

Properties computed using the SCF density matrix

  Nuclear Dipole Moment: [e a0]
     X:    -0.0000      Y:    -0.0000      Z:    -0.0000

  Electronic Dipole Moment: [e a0]
     X:     0.0000      Y:     0.0000      Z:    -0.0000

  Dipole Moment: [e a0]
     X:     0.0000      Y:     0.0000      Z:    -0.0000     Total:     0.0000

  Dipole Moment: [D]
     X:     0.0000      Y:     0.0000      Z:    -0.0000     Total:     0.0000

*** tstop() called on rh05314.villa-bosch.de at Wed Feb  5 14:14:04 2020
Module time:
	user time   =       3.86 seconds =       0.06 minutes
	system time =       0.07 seconds =       0.00 minutes
	total time  =          4 seconds =       0.07 minutes
Total time:
	user time   =       3.86 seconds =       0.06 minutes
	system time =       0.07 seconds =       0.00 minutes
	total time  =          4 seconds =       0.07 minutes

    Psi4 stopped on: Wednesday, 05 February 2020 02:14PM
    Psi4 wall time for execution: 0:00:03.95

*** Psi4 exiting successfully. Buy a developer a beer!
