                               Psi4 1.3.2 release

  ==> Input File <==

--------------------------------------------------------------------------

# PYTHONPATH must include directory above plugin directory.
#     Define either externally or here, then import plugin.

molecule {
  C    0.00000001055502      0.00000000005674     -0.00000000975578
  O   -0.00000000527751      1.15997617530518      0.00000000487789
  O   -0.00000000527751     -1.15997617536192      0.00000000487789
symmetry c1
}

set {
  basis def2-TZVP
}

set scf {
 reference uks
}

energy('TPSSH')
--------------------------------------------------------------------------

    Molecular point group: c1

    Geometry (in Angstrom), charge = 0, multiplicity = 1:

       Center              X                  Y                   Z               Mass
    ------------   -----------------  -----------------  -----------------  -----------------
         C            0.000000011514     0.000000010642     0.000000000062    12.000000000000
         O            0.000000011514     0.000000010642     1.159976175310    15.994914619570
         O           -0.000000020151    -0.000000018626    -1.159976175357    15.994914619570

  Charge       = 0
  Multiplicity = 1
  Basis Set: DEF2-TZVP
    Blend: DEF2-TZVP
  Basis Set: (DEF2-TZVP AUX)
    Blend: DEF2-TZVP-JKFIT

    Orbital Energies [Eh]
    ---------------------

    Alpha Occupied:

       1A    -19.134728     2A    -19.134727     3A    -10.290959
       4A     -1.139241     5A     -1.098419     6A     -0.546423
       7A     -0.500560     8A     -0.499471     9A     -0.499471
      10A     -0.358436    11A     -0.358436

    Alpha Virtual:

      12A      0.016520    13A      0.016520    14A      0.017190
      15A      0.166915    16A      0.186623    17A      0.186623
      18A      0.278506    19A      0.358775    20A      0.418414
      21A      0.428099    22A      0.428099    23A      0.581344
      24A      0.581344    25A      0.591618    26A      0.591618
      27A      0.707582    28A      0.808168    29A      0.922298
      30A      0.958873    31A      0.958873    32A      1.275748
      33A      1.304090    34A      1.304090    35A      1.336555
      36A      1.367697    37A      1.367697    38A      1.643713
      39A      1.643713    40A      1.675834    41A      1.883024
      42A      1.883024    43A      1.994026    44A      1.994026
      45A      2.215950    46A      2.412435    47A      2.579656
      48A      2.579656    49A      2.671962    50A      2.671962
      51A      2.727885    52A      2.727885    53A      2.821089
      54A      2.821092    55A      2.867124    56A      2.910836
      57A      2.910838    58A      3.031725    59A      3.314288
      60A      3.337719    61A      3.337719    62A      3.601755
      63A      3.816067    64A      3.816067    65A      4.823940
      66A      4.843438    67A      5.095274    68A      5.095274
      69A      5.165488    70A      5.165488    71A      5.215583
      72A      5.215589    73A      5.814983    74A      5.814984
      75A      6.019785    76A      6.140641    77A      6.140641
      78A      6.270719    79A      6.270782    80A      6.296756
      81A      6.296811    82A      6.465864    83A      6.465864
      84A      6.753105    85A      6.753105    86A      6.866487
      87A      7.031650    88A      7.031650    89A      7.382746
      90A      7.550397    91A     24.017929    92A     43.967241
      93A     44.130618

    Beta Occupied:

       1A    -19.134728     2A    -19.134727     3A    -10.290959
       4A     -1.139241     5A     -1.098419     6A     -0.546423
       7A     -0.500560     8A     -0.499471     9A     -0.499471
      10A     -0.358436    11A     -0.358436

    Beta Virtual:

      12A      0.016520    13A      0.016520    14A      0.017190
      15A      0.166915    16A      0.186623    17A      0.186623
      18A      0.278506    19A      0.358775    20A      0.418414
      21A      0.428099    22A      0.428099    23A      0.581344
      24A      0.581344    25A      0.591618    26A      0.591618
      27A      0.707582    28A      0.808168    29A      0.922298
      30A      0.958873    31A      0.958873    32A      1.275748
      33A      1.304090    34A      1.304090    35A      1.336555
      36A      1.367697    37A      1.367697    38A      1.643713
      39A      1.643713    40A      1.675834    41A      1.883024
      42A      1.883024    43A      1.994026    44A      1.994026
      45A      2.215950    46A      2.412435    47A      2.579656
      48A      2.579656    49A      2.671962    50A      2.671962
      51A      2.727885    52A      2.727885    53A      2.821089
      54A      2.821092    55A      2.867124    56A      2.910836
      57A      2.910838    58A      3.031725    59A      3.314288
      60A      3.337719    61A      3.337719    62A      3.601755
      63A      3.816067    64A      3.816067    65A      4.823940
      66A      4.843438    67A      5.095274    68A      5.095274
      69A      5.165488    70A      5.165488    71A      5.215583
      72A      5.215589    73A      5.814983    74A      5.814984
      75A      6.019785    76A      6.140641    77A      6.140641
      78A      6.270719    79A      6.270782    80A      6.296756
      81A      6.296811    82A      6.465864    83A      6.465864
      84A      6.753105    85A      6.753105    86A      6.866487
      87A      7.031650    88A      7.031650    89A      7.382746
      90A      7.550397    91A     24.017929    92A     43.967241
      93A     44.130618

    Final Occupation by Irrep:
              A
    DOCC [    11 ]
    SOCC [     0 ]

  @DF-UKS Final Energy:  -188.66829519137542

   => Energetics <=

    Nuclear Repulsion Energy =             58.3931673823239947
    One-Electron Energy =                -373.0199582535158243
    Two-Electron Energy =                 146.3826526560866910
    DFT Exchange-Correlation Energy =     -20.4241569762703108
    Empirical Dispersion Energy =           0.0000000000000000
    VV10 Nonlocal Energy =                  0.0000000000000000
    Total Energy =                       -188.6682951913754209

  UHF NO Occupations:
  HONO-2 :    9  A 2.0000000
  HONO-1 :   10  A 2.0000000
  HONO-0 :   11  A 2.0000000
  LUNO+0 :   12  A 0.0000000
  LUNO+1 :   13  A 0.0000000
  LUNO+2 :   14  A 0.0000000
  LUNO+3 :   15  A 0.0000000

Computation Completed

Properties will be evaluated at   0.000000,   0.000000,   0.000000 [a0]

Properties computed using the SCF density matrix

  Nuclear Dipole Moment: [e a0]
     X:    -0.0000      Y:    -0.0000      Z:    -0.0000

  Electronic Dipole Moment: [e a0]
     X:     0.0000      Y:     0.0000      Z:    -0.0000

  Dipole Moment: [e a0]
     X:     0.0000      Y:     0.0000      Z:    -0.0000     Total:     0.0000

  Dipole Moment: [D]
     X:     0.0000      Y:     0.0000      Z:    -0.0000     Total:     0.0000

*** tstop() called on rh05314.villa-bosch.de at Wed Feb  5 14:14:14 2020
Module time:
	user time   =       3.95 seconds =       0.07 minutes
	system time =       0.09 seconds =       0.00 minutes
	total time  =          4 seconds =       0.07 minutes
Total time:
	user time   =       3.95 seconds =       0.07 minutes
	system time =       0.09 seconds =       0.00 minutes
	total time  =          4 seconds =       0.07 minutes

    Psi4 stopped on: Wednesday, 05 February 2020 02:14PM
    Psi4 wall time for execution: 0:00:04.06

*** Psi4 exiting successfully. Buy a developer a beer!
