                               Psi4 1.3.2 release

  ==> Input File <==

--------------------------------------------------------------------------

# PYTHONPATH must include directory above plugin directory.
#     Define either externally or here, then import plugin.
import psixas

molecule {
  N   -1.22651784160217      0.40019879988830      0.01704879881164
  H   -0.43885155782371      0.15100232225883      0.60864221052405
  H   -0.88355924463589      1.09440986479077     -0.64102616291803
  H   -1.44986135593823     -0.42747098693791     -0.52829484641767
symmetry c1
}

set {
  basis 6-31G*
}

set scf {
 reference uks
 scf_type DF
}

energy('HF')
--------------------------------------------------------------------------

    Molecular point group: c1

    Geometry (in Angstrom), charge = 0, multiplicity = 1:

       Center              X                  Y                   Z               Mass
    ------------   -----------------  -----------------  -----------------  -----------------
         N           -0.053703241151     0.022649891445     0.036214781014    14.003074004430
         H            0.733963042628    -0.226546586185     0.627808192726     1.007825032230
         H            0.289255355816     0.716860956347    -0.621860180716     1.007825032230
         H           -0.277046755487    -0.805019895381    -0.509128864215     1.007825032230

  Charge       = 0
  Multiplicity = 1
  Basis Set: 6-31G*
    Blend: 6-31G*
  Basis Set: (6-31G* AUX)
    Blend: CC-PVDZ-JKFIT

    Orbital Energies [Eh]
    ---------------------

    Alpha Occupied:

       1A    -15.539948     2A     -1.134783     3A     -0.621165
       4A     -0.621104     5A     -0.421751

    Alpha Virtual:

       6A      0.219720     7A      0.321173     8A      0.321198
       9A      0.897286    10A      0.897310    11A      0.970159
      12A      1.205469    13A      1.219265    14A      1.219346
      15A      1.371356    16A      1.966604    17A      1.966616
      18A      2.262170    19A      2.751447    20A      2.751570
      21A      4.085589

    Beta Occupied:

       1A    -15.539948     2A     -1.134783     3A     -0.621165
       4A     -0.621104     5A     -0.421751

    Beta Virtual:

       6A      0.219720     7A      0.321173     8A      0.321198
       9A      0.897286    10A      0.897310    11A      0.970159
      12A      1.205469    13A      1.219265    14A      1.219346
      15A      1.371356    16A      1.966604    17A      1.966616
      18A      2.262170    19A      2.751447    20A      2.751570
      21A      4.085589

    Final Occupation by Irrep:
              A
    DOCC [     5 ]
    SOCC [     0 ]

  @DF-UKS Final Energy:   -56.18387635886027

   => Energetics <=

    Nuclear Repulsion Energy =             11.9118590025880593
    One-Electron Energy =                 -99.5139651008085480
    Two-Electron Energy =                  31.4182297393602141
    Total Energy =                        -56.1838763588602745

  UHF NO Occupations:
  HONO-2 :    3  A 2.0000000
  HONO-1 :    4  A 2.0000000
  HONO-0 :    5  A 2.0000000
  LUNO+0 :    6  A 0.0000000
  LUNO+1 :    7  A 0.0000000
  LUNO+2 :    8  A 0.0000000
  LUNO+3 :    9  A 0.0000000

Computation Completed

Properties will be evaluated at   0.000000,   0.000000,   0.000000 [a0]

Properties computed using the SCF density matrix

  Nuclear Dipole Moment: [e a0]
     X:     0.6997      Y:    -0.2951      Z:    -0.4718

  Electronic Dipole Moment: [e a0]
     X:    -0.0950      Y:     0.0399      Z:     0.0640

  Dipole Moment: [e a0]
     X:     0.6047      Y:    -0.2551      Z:    -0.4078     Total:     0.7727

  Dipole Moment: [D]
     X:     1.5369      Y:    -0.6485      Z:    -1.0365     Total:     1.9639

*** tstop() called on rh05314.villa-bosch.de at Wed Feb  5 13:43:42 2020
Module time:
	user time   =       0.35 seconds =       0.01 minutes
	system time =       0.00 seconds =       0.00 minutes
	total time  =          0 seconds =       0.00 minutes
Total time:
	user time   =       0.35 seconds =       0.01 minutes
	system time =       0.00 seconds =       0.00 minutes
	total time  =          0 seconds =       0.00 minutes

    Psi4 stopped on: Wednesday, 05 February 2020 01:43PM
    Psi4 wall time for execution: 0:00:00.54

*** Psi4 exiting successfully. Buy a developer a beer!
