                               Psi4 1.3.2 release

  ==> Input File <==

--------------------------------------------------------------------------

# PYTHONPATH must include directory above plugin directory.
#     Define either externally or here, then import plugin.

molecule {
  C    0.00000001055502      0.00000000005674     -0.00000000975578
  O   -0.00000000527751      1.15997617530518      0.00000000487789
  O   -0.00000000527751     -1.15997617536192      0.00000000487789
symmetry c1
}

set {
  basis def2-TZVP
}

set scf {
 reference uks
}

energy('wB97x')
--------------------------------------------------------------------------

    Molecular point group: c1

    Geometry (in Angstrom), charge = 0, multiplicity = 1:

       Center              X                  Y                   Z               Mass
    ------------   -----------------  -----------------  -----------------  -----------------
         C            0.000000011514     0.000000010642     0.000000000062    12.000000000000
         O            0.000000011514     0.000000010642     1.159976175310    15.994914619570
         O           -0.000000020151    -0.000000018626    -1.159976175357    15.994914619570

  Charge       = 0
  Multiplicity = 1
  Basis Set: DEF2-TZVP
    Blend: DEF2-TZVP
  Basis Set: (DEF2-TZVP AUX)
    Blend: DEF2-TZVP-JKFIT

    Orbital Energies [Eh]
    ---------------------

    Alpha Occupied:

       1A    -19.277865     2A    -19.277841     3A    -10.449453
       4A     -1.294917     5A     -1.250938     6A     -0.683949
       7A     -0.640680     8A     -0.640680     9A     -0.637660
      10A     -0.482225    11A     -0.482225

    Alpha Virtual:

      12A      0.110548    13A      0.127330    14A      0.127330
      15A      0.259833    16A      0.277612    17A      0.277612
      18A      0.394935    19A      0.461177    20A      0.519026
      21A      0.531377    22A      0.531377    23A      0.681650
      24A      0.681650    25A      0.693556    26A      0.693556
      27A      0.806363    28A      0.904931    29A      1.053464
      30A      1.077137    31A      1.077137    32A      1.381102
      33A      1.409618    34A      1.409618    35A      1.444175
      36A      1.490027    37A      1.490027    38A      1.765524
      39A      1.765525    40A      1.787850    41A      2.005451
      42A      2.005451    43A      2.111978    44A      2.111978
      45A      2.337321    46A      2.526621    47A      2.684744
      48A      2.684744    49A      2.799275    50A      2.799275
      51A      2.840730    52A      2.840730    53A      2.925947
      54A      2.925954    55A      2.989268    56A      3.012616
      57A      3.012617    58A      3.148022    59A      3.414285
      60A      3.448404    61A      3.448404    62A      3.719784
      63A      3.911469    64A      3.911469    65A      4.922139
      66A      4.932628    67A      5.168869    68A      5.168869
      69A      5.238005    70A      5.238005    71A      5.288621
      72A      5.288623    73A      5.889925    74A      5.889928
      75A      6.116791    76A      6.228663    77A      6.228663
      78A      6.365631    79A      6.365635    80A      6.378110
      81A      6.378112    82A      6.534971    83A      6.534971
      84A      6.830961    85A      6.830961    86A      6.952444
      87A      7.097776    88A      7.097776    89A      7.466777
      90A      7.625577    91A     24.007183    92A     43.903950
      93A     44.065879

    Beta Occupied:

       1A    -19.277865     2A    -19.277841     3A    -10.449453
       4A     -1.294917     5A     -1.250938     6A     -0.683949
       7A     -0.640680     8A     -0.640680     9A     -0.637660
      10A     -0.482225    11A     -0.482225

    Beta Virtual:

      12A      0.110548    13A      0.127330    14A      0.127330
      15A      0.259833    16A      0.277612    17A      0.277612
      18A      0.394935    19A      0.461177    20A      0.519026
      21A      0.531377    22A      0.531377    23A      0.681650
      24A      0.681650    25A      0.693556    26A      0.693556
      27A      0.806363    28A      0.904931    29A      1.053464
      30A      1.077137    31A      1.077137    32A      1.381102
      33A      1.409618    34A      1.409618    35A      1.444175
      36A      1.490027    37A      1.490027    38A      1.765524
      39A      1.765525    40A      1.787850    41A      2.005451
      42A      2.005451    43A      2.111978    44A      2.111978
      45A      2.337321    46A      2.526621    47A      2.684744
      48A      2.684744    49A      2.799275    50A      2.799275
      51A      2.840730    52A      2.840730    53A      2.925947
      54A      2.925954    55A      2.989268    56A      3.012616
      57A      3.012617    58A      3.148022    59A      3.414285
      60A      3.448404    61A      3.448404    62A      3.719784
      63A      3.911469    64A      3.911469    65A      4.922139
      66A      4.932628    67A      5.168869    68A      5.168869
      69A      5.238005    70A      5.238005    71A      5.288621
      72A      5.288623    73A      5.889925    74A      5.889928
      75A      6.116791    76A      6.228663    77A      6.228663
      78A      6.365631    79A      6.365635    80A      6.378110
      81A      6.378112    82A      6.534971    83A      6.534971
      84A      6.830961    85A      6.830961    86A      6.952444
      87A      7.097776    88A      7.097776    89A      7.466777
      90A      7.625577    91A     24.007183    92A     43.903950
      93A     44.065879

    Final Occupation by Irrep:
              A
    DOCC [    11 ]
    SOCC [     0 ]

  @DF-UKS Final Energy:  -188.61993188889016

   => Energetics <=

    Nuclear Repulsion Energy =             58.3931673823239947
    One-Electron Energy =                -372.9374039227949424
    Two-Electron Energy =                 142.0937613992369961
    DFT Exchange-Correlation Energy =     -16.1694567476562234
    Empirical Dispersion Energy =           0.0000000000000000
    VV10 Nonlocal Energy =                  0.0000000000000000
    Total Energy =                       -188.6199318888901644

  UHF NO Occupations:
  HONO-2 :    9  A 2.0000000
  HONO-1 :   10  A 2.0000000
  HONO-0 :   11  A 2.0000000
  LUNO+0 :   12  A 0.0000000
  LUNO+1 :   13  A 0.0000000
  LUNO+2 :   14  A 0.0000000
  LUNO+3 :   15  A 0.0000000

Computation Completed

Properties will be evaluated at   0.000000,   0.000000,   0.000000 [a0]

Properties computed using the SCF density matrix

  Nuclear Dipole Moment: [e a0]
     X:    -0.0000      Y:    -0.0000      Z:    -0.0000

  Electronic Dipole Moment: [e a0]
     X:     0.0000      Y:     0.0000      Z:    -0.0000

  Dipole Moment: [e a0]
     X:     0.0000      Y:     0.0000      Z:    -0.0000     Total:     0.0000

  Dipole Moment: [D]
     X:     0.0000      Y:     0.0000      Z:    -0.0000     Total:     0.0000

*** tstop() called on rh05314.villa-bosch.de at Wed Feb  5 13:52:20 2020
Module time:
	user time   =       2.53 seconds =       0.04 minutes
	system time =       0.05 seconds =       0.00 minutes
	total time  =          3 seconds =       0.05 minutes
Total time:
	user time   =       2.53 seconds =       0.04 minutes
	system time =       0.05 seconds =       0.00 minutes
	total time  =          3 seconds =       0.05 minutes

    Psi4 stopped on: Wednesday, 05 February 2020 01:52PM
    Psi4 wall time for execution: 0:00:02.61

*** Psi4 exiting successfully. Buy a developer a beer!
