                               Psi4 1.3.2 release

  ==> Input File <==

--------------------------------------------------------------------------

# PYTHONPATH must include directory above plugin directory.
#     Define either externally or here, then import plugin.

molecule {
  C    0.00000001055502      0.00000000005674     -0.00000000975578
  O   -0.00000000527751      1.15997617530518      0.00000000487789
  O   -0.00000000527751     -1.15997617536192      0.00000000487789
symmetry c1
}

set {
  basis def2-TZVP
}

set scf {
 reference uks
}

energy('B3LYP')
--------------------------------------------------------------------------

    Molecular point group: c1

    Geometry (in Angstrom), charge = 0, multiplicity = 1:

       Center              X                  Y                   Z               Mass
    ------------   -----------------  -----------------  -----------------  -----------------
         C            0.000000011514     0.000000010642     0.000000000062    12.000000000000
         O            0.000000011514     0.000000010642     1.159976175310    15.994914619570
         O           -0.000000020151    -0.000000018626    -1.159976175357    15.994914619570

  Charge       = 0
  Multiplicity = 1
  Basis Set: DEF2-TZVP
    Blend: DEF2-TZVP
  Basis Set: (DEF2-TZVP AUX)
    Blend: DEF2-TZVP-JKFIT

    Orbital Energies [Eh]
    ---------------------

    Alpha Occupied:

       1A    -19.214015     2A    -19.214012     3A    -10.365653
       4A     -1.170715     5A     -1.131100     6A     -0.571974
       7A     -0.530072     8A     -0.526919     9A     -0.526919
      10A     -0.382849    11A     -0.382849

    Alpha Virtual:

      12A      0.013253    13A      0.023606    14A      0.023606
      15A      0.160796    16A      0.180601    17A      0.180601
      18A      0.287813    19A      0.350551    20A      0.410159
      21A      0.419966    22A      0.419966    23A      0.581140
      24A      0.581140    25A      0.586045    26A      0.586045
      27A      0.706691    28A      0.808218    29A      0.927580
      30A      0.966293    31A      0.966293    32A      1.270366
      33A      1.293516    34A      1.293516    35A      1.332898
      36A      1.375937    37A      1.375937    38A      1.649011
      39A      1.649011    40A      1.674025    41A      1.888594
      42A      1.888594    43A      1.994999    44A      1.994999
      45A      2.214217    46A      2.409725    47A      2.571988
      48A      2.571988    49A      2.664678    50A      2.664678
      51A      2.723771    52A      2.723771    53A      2.821428
      54A      2.821428    55A      2.860623    56A      2.900408
      57A      2.900408    58A      3.021542    59A      3.296679
      60A      3.328050    61A      3.328050    62A      3.598252
      63A      3.800657    64A      3.800657    65A      4.802063
      66A      4.818526    67A      5.053581    68A      5.053581
      69A      5.122864    70A      5.122864    71A      5.177474
      72A      5.177475    73A      5.779693    74A      5.779693
      75A      5.996191    76A      6.115305    77A      6.115305
      78A      6.255389    79A      6.255402    80A      6.267903
      81A      6.267915    82A      6.426452    83A      6.426452
      84A      6.716518    85A      6.716518    86A      6.841899
      87A      6.988123    88A      6.988123    89A      7.353930
      90A      7.507716    91A     23.917910    92A     43.844547
      93A     44.006762

    Beta Occupied:

       1A    -19.214015     2A    -19.214012     3A    -10.365653
       4A     -1.170715     5A     -1.131100     6A     -0.571974
       7A     -0.530072     8A     -0.526919     9A     -0.526919
      10A     -0.382849    11A     -0.382849

    Beta Virtual:

      12A      0.013253    13A      0.023606    14A      0.023606
      15A      0.160796    16A      0.180601    17A      0.180601
      18A      0.287813    19A      0.350551    20A      0.410159
      21A      0.419966    22A      0.419966    23A      0.581140
      24A      0.581140    25A      0.586045    26A      0.586045
      27A      0.706691    28A      0.808218    29A      0.927580
      30A      0.966293    31A      0.966293    32A      1.270366
      33A      1.293516    34A      1.293516    35A      1.332898
      36A      1.375937    37A      1.375937    38A      1.649011
      39A      1.649011    40A      1.674025    41A      1.888594
      42A      1.888594    43A      1.994999    44A      1.994999
      45A      2.214217    46A      2.409725    47A      2.571988
      48A      2.571988    49A      2.664678    50A      2.664678
      51A      2.723771    52A      2.723771    53A      2.821428
      54A      2.821428    55A      2.860623    56A      2.900408
      57A      2.900408    58A      3.021542    59A      3.296679
      60A      3.328050    61A      3.328050    62A      3.598252
      63A      3.800657    64A      3.800657    65A      4.802063
      66A      4.818526    67A      5.053581    68A      5.053581
      69A      5.122864    70A      5.122864    71A      5.177474
      72A      5.177475    73A      5.779693    74A      5.779693
      75A      5.996191    76A      6.115305    77A      6.115305
      78A      6.255389    79A      6.255402    80A      6.267903
      81A      6.267915    82A      6.426452    83A      6.426452
      84A      6.716518    85A      6.716518    86A      6.841899
      87A      6.988123    88A      6.988123    89A      7.353930
      90A      7.507716    91A     23.917910    92A     43.844547
      93A     44.006762

    Final Occupation by Irrep:
              A
    DOCC [    11 ]
    SOCC [     0 ]

  @DF-UKS Final Energy:  -188.66993811662826

   => Energetics <=

    Nuclear Repulsion Energy =             58.3931673823239947
    One-Electron Energy =                -372.9761202366064481
    Two-Electron Energy =                 144.1695326445535272
    DFT Exchange-Correlation Energy =     -18.2565179068993011
    Empirical Dispersion Energy =           0.0000000000000000
    VV10 Nonlocal Energy =                  0.0000000000000000
    Total Energy =                       -188.6699381166282024

  UHF NO Occupations:
  HONO-2 :    9  A 2.0000000
  HONO-1 :   10  A 2.0000000
  HONO-0 :   11  A 2.0000000
  LUNO+0 :   12  A 0.0000000
  LUNO+1 :   13  A 0.0000000
  LUNO+2 :   14  A 0.0000000
  LUNO+3 :   15  A 0.0000000

Computation Completed

Properties will be evaluated at   0.000000,   0.000000,   0.000000 [a0]

Properties computed using the SCF density matrix

  Nuclear Dipole Moment: [e a0]
     X:    -0.0000      Y:    -0.0000      Z:    -0.0000

  Electronic Dipole Moment: [e a0]
     X:     0.0000      Y:     0.0000      Z:    -0.0000

  Dipole Moment: [e a0]
     X:     0.0000      Y:     0.0000      Z:    -0.0000     Total:     0.0000

  Dipole Moment: [D]
     X:     0.0000      Y:     0.0000      Z:    -0.0000     Total:     0.0000

*** tstop() called on rh05314.villa-bosch.de at Wed Feb  5 13:43:29 2020
Module time:
	user time   =       2.12 seconds =       0.04 minutes
	system time =       0.06 seconds =       0.00 minutes
	total time  =          2 seconds =       0.03 minutes
Total time:
	user time   =       2.12 seconds =       0.04 minutes
	system time =       0.06 seconds =       0.00 minutes
	total time  =          2 seconds =       0.03 minutes

    Psi4 stopped on: Wednesday, 05 February 2020 01:43PM
    Psi4 wall time for execution: 0:00:02.19

*** Psi4 exiting successfully. Buy a developer a beer!
