                               Psi4 1.3.2 release

  ==> Input File <==

--------------------------------------------------------------------------

# PYTHONPATH must include directory above plugin directory.
#     Define either externally or here, then import plugin.
import psixas

molecule {
  N   -1.22651784160217      0.40019879988830      0.01704879881164
  H   -0.43885155782371      0.15100232225883      0.60864221052405
  H   -0.88355924463589      1.09440986479077     -0.64102616291803
  H   -1.44986135593823     -0.42747098693791     -0.52829484641767
symmetry c1
}

set {
  basis 6-31G*
}

set scf {
 reference uks
 scf_type DF
}

energy('B3LYP')
--------------------------------------------------------------------------

    Molecular point group: c1

    Geometry (in Angstrom), charge = 0, multiplicity = 1:

       Center              X                  Y                   Z               Mass
    ------------   -----------------  -----------------  -----------------  -----------------
         N           -0.053703241151     0.022649891445     0.036214781014    14.003074004430
         H            0.733963042628    -0.226546586185     0.627808192726     1.007825032230
         H            0.289255355816     0.716860956347    -0.621860180716     1.007825032230
         H           -0.277046755487    -0.805019895381    -0.509128864215     1.007825032230

  Charge       = 0
  Multiplicity = 1
  Basis Set: 6-31G*
    Blend: 6-31G*
  Basis Set: (6-31G* AUX)
    Blend: CC-PVDZ-JKFIT

    Orbital Energies [Eh]
    ---------------------

    Alpha Occupied:

       1A    -14.304384     2A     -0.845176     3A     -0.453836
       4A     -0.453790     5A     -0.250442

    Alpha Virtual:

       6A      0.079805     7A      0.169247     8A      0.169279
       9A      0.684450    10A      0.684474    11A      0.721864
      12A      0.918349    13A      0.918418    14A      0.921357
      15A      1.148866    16A      1.675756    17A      1.675771
      18A      1.953056    19A      2.406562    20A      2.406683
      21A      3.671761

    Beta Occupied:

       1A    -14.304384     2A     -0.845176     3A     -0.453836
       4A     -0.453790     5A     -0.250442

    Beta Virtual:

       6A      0.079805     7A      0.169247     8A      0.169279
       9A      0.684450    10A      0.684474    11A      0.721864
      12A      0.918349    13A      0.918418    14A      0.921357
      15A      1.148866    16A      1.675756    17A      1.675771
      18A      1.953056    19A      2.406562    20A      2.406683
      21A      3.671761

    Final Occupation by Irrep:
              A
    DOCC [     5 ]
    SOCC [     0 ]

  @DF-UKS Final Energy:   -56.54791708331750

   => Energetics <=

    Nuclear Repulsion Energy =             11.9118590025880593
    One-Electron Energy =                 -99.6324618523962613
    Two-Electron Energy =                  37.6733029943699052
    DFT Exchange-Correlation Energy =      -6.5006172278792098
    Empirical Dispersion Energy =           0.0000000000000000
    VV10 Nonlocal Energy =                  0.0000000000000000
    Total Energy =                        -56.5479170833175075

  UHF NO Occupations:
  HONO-2 :    3  A 2.0000000
  HONO-1 :    4  A 2.0000000
  HONO-0 :    5  A 2.0000000
  LUNO+0 :    6  A 0.0000000
  LUNO+1 :    7  A 0.0000000
  LUNO+2 :    8  A 0.0000000
  LUNO+3 :    9  A 0.0000000

Computation Completed

Properties will be evaluated at   0.000000,   0.000000,   0.000000 [a0]

Properties computed using the SCF density matrix

  Nuclear Dipole Moment: [e a0]
     X:     0.6997      Y:    -0.2951      Z:    -0.4718

  Electronic Dipole Moment: [e a0]
     X:    -0.1214      Y:     0.0511      Z:     0.0818

  Dipole Moment: [e a0]
     X:     0.5782      Y:    -0.2440      Z:    -0.3900     Total:     0.7389

  Dipole Moment: [D]
     X:     1.4697      Y:    -0.6202      Z:    -0.9912     Total:     1.8781

*** tstop() called on rh05314.villa-bosch.de at Wed Feb  5 13:43:37 2020
Module time:
	user time   =       1.19 seconds =       0.02 minutes
	system time =       0.05 seconds =       0.00 minutes
	total time  =          1 seconds =       0.02 minutes
Total time:
	user time   =       1.19 seconds =       0.02 minutes
	system time =       0.05 seconds =       0.00 minutes
	total time  =          1 seconds =       0.02 minutes

    Psi4 stopped on: Wednesday, 05 February 2020 01:43PM
    Psi4 wall time for execution: 0:00:01.41

*** Psi4 exiting successfully. Buy a developer a beer!
