                               Psi4 1.3.2 release

  ==> Input File <==

--------------------------------------------------------------------------

# PYTHONPATH must include directory above plugin directory.
#     Define either externally or here, then import plugin.

molecule {
  C    0.00000001055502      0.00000000005674     -0.00000000975578
  O   -0.00000000527751      1.15997617530518      0.00000000487789
  O   -0.00000000527751     -1.15997617536192      0.00000000487789
symmetry c1
}

set {
  basis def2-TZVP
}

set scf {
 reference uks
}

energy('HF')
--------------------------------------------------------------------------

    Molecular point group: c1

    Geometry (in Angstrom), charge = 0, multiplicity = 1:

       Center              X                  Y                   Z               Mass
    ------------   -----------------  -----------------  -----------------  -----------------
         C            0.000000011514     0.000000010642     0.000000000062    12.000000000000
         O            0.000000011514     0.000000010642     1.159976175310    15.994914619570
         O           -0.000000020151    -0.000000018626    -1.159976175357    15.994914619570

  Charge       = 0
  Multiplicity = 1
  Basis Set: DEF2-TZVP
    Blend: DEF2-TZVP
  Basis Set: (DEF2-TZVP AUX)
    Blend: DEF2-TZVP-JKFIT

    Orbital Energies [Eh]
    ---------------------

    Alpha Occupied:

       1A    -20.649623     2A    -20.649579     3A    -11.458664
       4A     -1.530600     5A     -1.477479     6A     -0.799733
       7A     -0.742953     8A     -0.715483     9A     -0.715483
      10A     -0.544165    11A     -0.544165

    Alpha Virtual:

      12A      0.133934    13A      0.198044    14A      0.198044
      15A      0.261438    16A      0.303155    17A      0.303155
      18A      0.488973    19A      0.493398    20A      0.551145
      21A      0.579167    22A      0.579167    23A      0.756391
      24A      0.756391    25A      0.757937    26A      0.757937
      27A      0.880872    28A      0.981216    29A      1.199880
      30A      1.199880    31A      1.267875    32A      1.500554
      33A      1.545934    34A      1.566892    35A      1.566892
      36A      1.639197    37A      1.639197    38A      1.927116
      39A      1.927116    40A      1.929098    41A      2.188160
      42A      2.188160    43A      2.287721    44A      2.287721
      45A      2.560257    46A      2.722226    47A      2.841577
      48A      2.841577    49A      3.097122    50A      3.097122
      51A      3.112863    52A      3.112863    53A      3.138604
      54A      3.138604    55A      3.223300    56A      3.223300
      57A      3.257741    58A      3.400708    59A      3.646948
      60A      3.726087    61A      3.726087    62A      4.012194
      63A      4.143172    64A      4.143172    65A      5.256215
      66A      5.274281    67A      5.504389    68A      5.504389
      69A      5.573945    70A      5.573945    71A      5.631916
      72A      5.631916    73A      6.250128    74A      6.250128
      75A      6.506019    76A      6.608564    77A      6.608564
      78A      6.786129    79A      6.786129    80A      6.786824
      81A      6.786824    82A      6.921118    83A      6.921118
      84A      7.206338    85A      7.206338    86A      7.373850
      87A      7.505178    88A      7.505178    89A      7.904040
      90A      8.033126    91A     25.029552    92A     45.456657
      93A     45.620096

    Beta Occupied:

       1A    -20.649623     2A    -20.649579     3A    -11.458664
       4A     -1.530600     5A     -1.477479     6A     -0.799733
       7A     -0.742953     8A     -0.715483     9A     -0.715483
      10A     -0.544165    11A     -0.544165

    Beta Virtual:

      12A      0.133934    13A      0.198044    14A      0.198044
      15A      0.261438    16A      0.303155    17A      0.303155
      18A      0.488973    19A      0.493398    20A      0.551145
      21A      0.579167    22A      0.579167    23A      0.756391
      24A      0.756391    25A      0.757937    26A      0.757937
      27A      0.880872    28A      0.981216    29A      1.199880
      30A      1.199880    31A      1.267875    32A      1.500554
      33A      1.545934    34A      1.566892    35A      1.566892
      36A      1.639197    37A      1.639197    38A      1.927116
      39A      1.927116    40A      1.929098    41A      2.188160
      42A      2.188160    43A      2.287721    44A      2.287721
      45A      2.560257    46A      2.722226    47A      2.841577
      48A      2.841577    49A      3.097122    50A      3.097122
      51A      3.112863    52A      3.112863    53A      3.138604
      54A      3.138604    55A      3.223300    56A      3.223300
      57A      3.257741    58A      3.400708    59A      3.646948
      60A      3.726087    61A      3.726087    62A      4.012194
      63A      4.143172    64A      4.143172    65A      5.256215
      66A      5.274281    67A      5.504389    68A      5.504389
      69A      5.573945    70A      5.573945    71A      5.631916
      72A      5.631916    73A      6.250128    74A      6.250128
      75A      6.506019    76A      6.608564    77A      6.608564
      78A      6.786129    79A      6.786129    80A      6.786824
      81A      6.786824    82A      6.921118    83A      6.921118
      84A      7.206338    85A      7.206338    86A      7.373850
      87A      7.505178    88A      7.505178    89A      7.904040
      90A      8.033126    91A     25.029552    92A     45.456657
      93A     45.620096

    Final Occupation by Irrep:
              A
    DOCC [    11 ]
    SOCC [     0 ]

  @DF-UKS Final Energy:  -187.71626005882075

   => Energetics <=

    Nuclear Repulsion Energy =             58.3931673823239947
    One-Electron Energy =                -372.5629518901571373
    Two-Electron Energy =                 126.4535244490123773
    Total Energy =                       -187.7162600588207511

  UHF NO Occupations:
  HONO-2 :    9  A 2.0000000
  HONO-1 :   10  A 2.0000000
  HONO-0 :   11  A 2.0000000
  LUNO+0 :   12  A 0.0000000
  LUNO+1 :   13  A 0.0000000
  LUNO+2 :   14  A 0.0000000
  LUNO+3 :   15  A 0.0000000

Computation Completed

Properties will be evaluated at   0.000000,   0.000000,   0.000000 [a0]

Properties computed using the SCF density matrix

  Nuclear Dipole Moment: [e a0]
     X:    -0.0000      Y:    -0.0000      Z:    -0.0000

  Electronic Dipole Moment: [e a0]
     X:     0.0000      Y:     0.0000      Z:     0.0000

  Dipole Moment: [e a0]
     X:     0.0000      Y:     0.0000      Z:     0.0000     Total:     0.0000

  Dipole Moment: [D]
     X:     0.0000      Y:     0.0000      Z:     0.0000     Total:     0.0000

*** tstop() called on rh05314.villa-bosch.de at Wed Feb  5 13:43:31 2020
Module time:
	user time   =       0.53 seconds =       0.01 minutes
	system time =       0.01 seconds =       0.00 minutes
	total time  =          0 seconds =       0.00 minutes
Total time:
	user time   =       0.53 seconds =       0.01 minutes
	system time =       0.01 seconds =       0.00 minutes
	total time  =          0 seconds =       0.00 minutes

    Psi4 stopped on: Wednesday, 05 February 2020 01:43PM
    Psi4 wall time for execution: 0:00:00.56

*** Psi4 exiting successfully. Buy a developer a beer!
