                               Psi4 1.3.2 release

  ==> Input File <==

--------------------------------------------------------------------------

# PYTHONPATH must include directory above plugin directory.
#     Define either externally or here, then import plugin.
import psixas

molecule {
  N   -1.22651784160217      0.40019879988830      0.01704879881164
  H   -0.43885155782371      0.15100232225883      0.60864221052405
  H   -0.88355924463589      1.09440986479077     -0.64102616291803
  H   -1.44986135593823     -0.42747098693791     -0.52829484641767
symmetry c1
}

set {
  basis def2-tzvp
}

set scf {
 reference uks
 scf_type DF
}

energy('HF')
--------------------------------------------------------------------------

    Molecular point group: c1

    Geometry (in Angstrom), charge = 0, multiplicity = 1:

       Center              X                  Y                   Z               Mass
    ------------   -----------------  -----------------  -----------------  -----------------
         N           -0.053703241151     0.022649891445     0.036214781014    14.003074004430
         H            0.733963042628    -0.226546586185     0.627808192726     1.007825032230
         H            0.289255355816     0.716860956347    -0.621860180716     1.007825032230
         H           -0.277046755487    -0.805019895381    -0.509128864215     1.007825032230

  Charge       = 0
  Multiplicity = 1
  Basis Set: DEF2-TZVP
    Blend: DEF2-TZVP
  Basis Set: (DEF2-TZVP AUX)
    Blend: DEF2-TZVP-JKFIT

    Orbital Energies [Eh]
    ---------------------

    Alpha Occupied:

       1A    -15.538985     2A     -1.138751     3A     -0.624987
       4A     -0.624927     5A     -0.428497

    Alpha Virtual:

       6A      0.128053     7A      0.212909     8A      0.212911
       9A      0.442454    10A      0.442476    11A      0.503514
      12A      0.629291    13A      0.672527    14A      0.722994
      15A      0.723038    16A      1.132417    17A      1.132438
      18A      1.367184    19A      1.467393    20A      1.467424
      21A      1.878395    22A      2.000682    23A      2.000694
      24A      2.087889    25A      2.282733    26A      2.346228
      27A      2.346285    28A      2.615974    29A      2.617610
      30A      2.617684    31A      2.771397    32A      2.824545
      33A      2.824722    34A      3.319053    35A      3.575737
      36A      3.575884    37A      4.430051    38A      4.684625
      39A      4.684743    40A      4.813790    41A      5.021453
      42A      5.021504    43A      5.041814    44A      5.300531
      45A      5.300591    46A      5.805006    47A      5.805098
      48A      6.152372    49A     32.828492

    Beta Occupied:

       1A    -15.538985     2A     -1.138751     3A     -0.624987
       4A     -0.624927     5A     -0.428497

    Beta Virtual:

       6A      0.128053     7A      0.212909     8A      0.212911
       9A      0.442454    10A      0.442476    11A      0.503514
      12A      0.629291    13A      0.672527    14A      0.722994
      15A      0.723038    16A      1.132417    17A      1.132438
      18A      1.367184    19A      1.467393    20A      1.467424
      21A      1.878395    22A      2.000682    23A      2.000694
      24A      2.087889    25A      2.282733    26A      2.346228
      27A      2.346285    28A      2.615974    29A      2.617610
      30A      2.617684    31A      2.771397    32A      2.824545
      33A      2.824722    34A      3.319053    35A      3.575737
      36A      3.575884    37A      4.430051    38A      4.684625
      39A      4.684743    40A      4.813790    41A      5.021453
      42A      5.021504    43A      5.041814    44A      5.300531
      45A      5.300591    46A      5.805006    47A      5.805098
      48A      6.152372    49A     32.828492

    Final Occupation by Irrep:
              A
    DOCC [     5 ]
    SOCC [     0 ]

  @DF-UKS Final Energy:   -56.21799016897452

   => Energetics <=

    Nuclear Repulsion Energy =             11.9118590025880593
    One-Electron Energy =                 -99.5473998264968856
    Two-Electron Energy =                  31.4175506549343098
    Total Energy =                        -56.2179901689745165

  UHF NO Occupations:
  HONO-2 :    3  A 2.0000000
  HONO-1 :    4  A 2.0000000
  HONO-0 :    5  A 2.0000000
  LUNO+0 :    6  A 0.0000000
  LUNO+1 :    7  A 0.0000000
  LUNO+2 :    8  A 0.0000000
  LUNO+3 :    9  A 0.0000000

Computation Completed

Properties will be evaluated at   0.000000,   0.000000,   0.000000 [a0]

Properties computed using the SCF density matrix

  Nuclear Dipole Moment: [e a0]
     X:     0.6997      Y:    -0.2951      Z:    -0.4718

  Electronic Dipole Moment: [e a0]
     X:    -0.1540      Y:     0.0648      Z:     0.1038

  Dipole Moment: [e a0]
     X:     0.5457      Y:    -0.2302      Z:    -0.3680     Total:     0.6973

  Dipole Moment: [D]
     X:     1.3869      Y:    -0.5852      Z:    -0.9354     Total:     1.7723

*** tstop() called on rh05314.villa-bosch.de at Wed Feb  5 13:43:44 2020
Module time:
	user time   =       0.43 seconds =       0.01 minutes
	system time =       0.01 seconds =       0.00 minutes
	total time  =          1 seconds =       0.02 minutes
Total time:
	user time   =       0.43 seconds =       0.01 minutes
	system time =       0.01 seconds =       0.00 minutes
	total time  =          1 seconds =       0.02 minutes

    Psi4 stopped on: Wednesday, 05 February 2020 01:43PM
    Psi4 wall time for execution: 0:00:00.60

*** Psi4 exiting successfully. Buy a developer a beer!
