                               Psi4 1.3.2 release

  ==> Input File <==

--------------------------------------------------------------------------

# PYTHONPATH must include directory above plugin directory.
#     Define either externally or here, then import plugin.

molecule {
  O   0.27681793323501      0.00000014791107      0.00000000000000
  H   0.86159097690242      0.76505117501585      0.00000000000000
  H   0.86159108986257     -0.76505132292693      0.00000000000000
symmetry c1
}

set {
  basis def2-TZVP
}

set scf {
 reference uks
}

energy('HF')
--------------------------------------------------------------------------

    Molecular point group: c1

    Geometry (in Angstrom), charge = 0, multiplicity = 1:

       Center              X                  Y                   Z               Mass
    ------------   -----------------  -----------------  -----------------  -----------------
         O           -0.065444807405     0.000000024830     0.000000000000    15.994914619570
         H            0.519328236262     0.765051051935     0.000000000000     1.007825032230
         H            0.519328349222    -0.765051446008     0.000000000000     1.007825032230

  Charge       = 0
  Multiplicity = 1
  Basis Set: DEF2-TZVP
    Blend: DEF2-TZVP
  Basis Set: (DEF2-TZVP AUX)
    Blend: DEF2-TZVP-JKFIT

    Orbital Energies [Eh]
    ---------------------

    Alpha Occupied:

       1A    -20.560424     2A     -1.346307     3A     -0.713006
       4A     -0.578834     5A     -0.507354

    Alpha Virtual:

       6A      0.127224     7A      0.196867     8A      0.523571
       9A      0.564883    10A      0.597519    11A      0.638556
      12A      0.768426    13A      0.772620    14A      1.416820
      15A      1.438856    16A      1.553302    17A      1.775442
      18A      1.896874    19A      2.024673    20A      2.278069
      21A      2.346020    22A      2.395147    23A      2.572740
      24A      2.697392    25A      2.970897    26A      2.978519
      27A      3.026252    28A      3.145776    29A      4.008171
      30A      4.330295    31A      5.552680    32A      5.653355
      33A      5.836865    34A      5.861834    35A      5.926081
      36A      6.524081    37A      6.728535    38A      6.829506
      39A      6.893935    40A      6.939587    41A      7.406656
      42A      7.496147    43A     44.832005

    Beta Occupied:

       1A    -20.560424     2A     -1.346307     3A     -0.713006
       4A     -0.578834     5A     -0.507354

    Beta Virtual:

       6A      0.127224     7A      0.196867     8A      0.523571
       9A      0.564883    10A      0.597519    11A      0.638556
      12A      0.768426    13A      0.772620    14A      1.416820
      15A      1.438856    16A      1.553302    17A      1.775442
      18A      1.896874    19A      2.024673    20A      2.278069
      21A      2.346020    22A      2.395147    23A      2.572740
      24A      2.697392    25A      2.970897    26A      2.978519
      27A      3.026252    28A      3.145776    29A      4.008171
      30A      4.330295    31A      5.552680    32A      5.653355
      33A      5.836865    34A      5.861834    35A      5.926081
      36A      6.524081    37A      6.728535    38A      6.829506
      39A      6.893935    40A      6.939587    41A      7.406656
      42A      7.496147    43A     44.832005

    Final Occupation by Irrep:
              A
    DOCC [     5 ]
    SOCC [     0 ]

  @DF-UKS Final Energy:   -76.05866035441683

   => Energetics <=

    Nuclear Repulsion Energy =              9.1384915739382020
    One-Electron Energy =                -122.9824536670163013
    Two-Electron Energy =                  37.7853017386612677
    Total Energy =                        -76.0586603544168440

  UHF NO Occupations:
  HONO-2 :    3  A 2.0000000
  HONO-1 :    4  A 2.0000000
  HONO-0 :    5  A 2.0000000
  LUNO+0 :    6  A 0.0000000
  LUNO+1 :    7  A 0.0000000
  LUNO+2 :    8  A 0.0000000
  LUNO+3 :    9  A 0.0000000

Computation Completed

Properties will be evaluated at   0.000000,   0.000000,   0.000000 [a0]

Properties computed using the SCF density matrix

  Nuclear Dipole Moment: [e a0]
     X:     0.9734      Y:    -0.0000      Z:     0.0000

  Electronic Dipole Moment: [e a0]
     X:    -0.1270      Y:     0.0000      Z:    -0.0000

  Dipole Moment: [e a0]
     X:     0.8464      Y:    -0.0000      Z:    -0.0000     Total:     0.8464

  Dipole Moment: [D]
     X:     2.1512      Y:    -0.0000      Z:    -0.0000     Total:     2.1512

*** tstop() called on rh05314.villa-bosch.de at Wed Feb  5 13:43:35 2020
Module time:
	user time   =       0.38 seconds =       0.01 minutes
	system time =       0.01 seconds =       0.00 minutes
	total time  =          0 seconds =       0.00 minutes
Total time:
	user time   =       0.38 seconds =       0.01 minutes
	system time =       0.01 seconds =       0.00 minutes
	total time  =          0 seconds =       0.00 minutes

    Psi4 stopped on: Wednesday, 05 February 2020 01:43PM
    Psi4 wall time for execution: 0:00:00.40

*** Psi4 exiting successfully. Buy a developer a beer!
