                               Psi4 1.3.2 release

  ==> Input File <==

--------------------------------------------------------------------------

# PYTHONPATH must include directory above plugin directory.
#     Define either externally or here, then import plugin.

molecule {
  O   0.27681793323501      0.00000014791107      0.00000000000000
  H   0.86159097690242      0.76505117501585      0.00000000000000
  H   0.86159108986257     -0.76505132292693      0.00000000000000
symmetry c1
}

set {
  basis def2-TZVP
}

set scf {
 reference uks
}

energy('B3LYP')
--------------------------------------------------------------------------

    Molecular point group: c1

    Geometry (in Angstrom), charge = 0, multiplicity = 1:

       Center              X                  Y                   Z               Mass
    ------------   -----------------  -----------------  -----------------  -----------------
         O           -0.065444807405     0.000000024830     0.000000000000    15.994914619570
         H            0.519328236262     0.765051051935     0.000000000000     1.007825032230
         H            0.519328349222    -0.765051446008     0.000000000000     1.007825032230

  Charge       = 0
  Multiplicity = 1
  Basis Set: DEF2-TZVP
    Blend: DEF2-TZVP
  Basis Set: (DEF2-TZVP AUX)
    Blend: DEF2-TZVP-JKFIT

    Orbital Energies [Eh]
    ---------------------

    Alpha Occupied:

       1A    -19.127510     2A     -1.014057     3A     -0.535294
       4A     -0.390624     5A     -0.316389

    Alpha Virtual:

       6A      0.013682     7A      0.089095     8A      0.356520
       9A      0.404352    10A      0.424582    11A      0.434157
      12A      0.567986    13A      0.594469    14A      1.165556
      15A      1.185135    16A      1.294544    17A      1.520031
      18A      1.628054    19A      1.744150    20A      1.974208
      21A      2.048615    22A      2.099872    23A      2.276104
      24A      2.377995    25A      2.567929    26A      2.597860
      27A      2.602965    28A      2.767886    29A      3.623971
      30A      3.919584    31A      5.096513    32A      5.194312
      33A      5.373612    34A      5.395616    35A      5.463874
      36A      6.012685    37A      6.202575    38A      6.296293
      39A      6.362020    40A      6.408211    41A      6.898048
      42A      6.977226    43A     43.224588

    Beta Occupied:

       1A    -19.127510     2A     -1.014057     3A     -0.535294
       4A     -0.390624     5A     -0.316389

    Beta Virtual:

       6A      0.013682     7A      0.089095     8A      0.356520
       9A      0.404352    10A      0.424582    11A      0.434157
      12A      0.567986    13A      0.594469    14A      1.165556
      15A      1.185135    16A      1.294544    17A      1.520031
      18A      1.628054    19A      1.744150    20A      1.974208
      21A      2.048615    22A      2.099872    23A      2.276104
      24A      2.377995    25A      2.567929    26A      2.597860
      27A      2.602965    28A      2.767886    29A      3.623971
      30A      3.919584    31A      5.096513    32A      5.194312
      33A      5.373612    34A      5.395616    35A      5.463874
      36A      6.012685    37A      6.202575    38A      6.296293
      39A      6.362020    40A      6.408211    41A      6.898048
      42A      6.977226    43A     43.224588

    Final Occupation by Irrep:
              A
    DOCC [     5 ]
    SOCC [     0 ]

  @DF-UKS Final Energy:   -76.46302560009397

   => Energetics <=

    Nuclear Repulsion Energy =              9.1384915739382020
    One-Electron Energy =                -123.0107737654237638
    Two-Electron Energy =                  44.9640201542837090
    DFT Exchange-Correlation Energy =      -7.5547635628921128
    Empirical Dispersion Energy =           0.0000000000000000
    VV10 Nonlocal Energy =                  0.0000000000000000
    Total Energy =                        -76.4630256000939710

  UHF NO Occupations:
  HONO-2 :    3  A 2.0000000
  HONO-1 :    4  A 2.0000000
  HONO-0 :    5  A 2.0000000
  LUNO+0 :    6  A 0.0000000
  LUNO+1 :    7  A 0.0000000
  LUNO+2 :    8  A 0.0000000
  LUNO+3 :    9  A 0.0000000

Computation Completed

Properties will be evaluated at   0.000000,   0.000000,   0.000000 [a0]

Properties computed using the SCF density matrix

  Nuclear Dipole Moment: [e a0]
     X:     0.9734      Y:    -0.0000      Z:     0.0000

  Electronic Dipole Moment: [e a0]
     X:    -0.1612      Y:     0.0000      Z:    -0.0000

  Dipole Moment: [e a0]
     X:     0.8122      Y:    -0.0000      Z:    -0.0000     Total:     0.8122

  Dipole Moment: [D]
     X:     2.0643      Y:    -0.0000      Z:    -0.0000     Total:     2.0643

*** tstop() called on rh05314.villa-bosch.de at Wed Feb  5 13:43:34 2020
Module time:
	user time   =       1.13 seconds =       0.02 minutes
	system time =       0.05 seconds =       0.00 minutes
	total time  =          2 seconds =       0.03 minutes
Total time:
	user time   =       1.13 seconds =       0.02 minutes
	system time =       0.05 seconds =       0.00 minutes
	total time  =          2 seconds =       0.03 minutes

    Psi4 stopped on: Wednesday, 05 February 2020 01:43PM
    Psi4 wall time for execution: 0:00:01.18

*** Psi4 exiting successfully. Buy a developer a beer!
