                               Psi4 1.3.2 release

  ==> Input File <==

--------------------------------------------------------------------------

# PYTHONPATH must include directory above plugin directory.
#     Define either externally or here, then import plugin.
import psixas

molecule {
  N   -1.22651784160217      0.40019879988830      0.01704879881164
  H   -0.43885155782371      0.15100232225883      0.60864221052405
  H   -0.88355924463589      1.09440986479077     -0.64102616291803
  H   -1.44986135593823     -0.42747098693791     -0.52829484641767
symmetry c1
}

set {
  basis def2-tzvp
}

set scf {
 reference uks
 scf_type DF
}

energy('M11')
--------------------------------------------------------------------------

    Molecular point group: c1

    Geometry (in Angstrom), charge = 0, multiplicity = 1:

       Center              X                  Y                   Z               Mass
    ------------   -----------------  -----------------  -----------------  -----------------
         N           -0.053703241151     0.022649891445     0.036214781014    14.003074004430
         H            0.733963042628    -0.226546586185     0.627808192726     1.007825032230
         H            0.289255355816     0.716860956347    -0.621860180716     1.007825032230
         H           -0.277046755487    -0.805019895381    -0.509128864215     1.007825032230

  Charge       = 0
  Multiplicity = 1
  Basis Set: DEF2-TZVP
    Blend: DEF2-TZVP
  Basis Set: (DEF2-TZVP AUX)
    Blend: DEF2-TZVP-JKFIT

    Orbital Energies [Eh]
    ---------------------

    Alpha Occupied:

       1A    -14.571317     2A     -0.985022     3A     -0.575354
       4A     -0.575316     5A     -0.383125

    Alpha Virtual:

       6A      0.087691     7A      0.159455     8A      0.159456
       9A      0.384530    10A      0.384554    11A      0.456657
      12A      0.512913    13A      0.588169    14A      0.594766
      15A      0.594791    16A      0.997830    17A      0.997848
      18A      1.232460    19A      1.326435    20A      1.326455
      21A      1.698395    22A      1.811206    23A      1.811231
      24A      1.870070    25A      2.031367    26A      2.099154
      27A      2.099195    28A      2.363321    29A      2.400248
      30A      2.400326    31A      2.474867    32A      2.538247
      33A      2.538398    34A      3.034012    35A      3.254608
      36A      3.254663    37A      4.059458    38A      4.307600
      39A      4.307697    40A      4.454393    41A      4.603721
      42A      4.603777    43A      4.605897    44A      4.875448
      45A      4.875521    46A      5.348596    47A      5.348683
      48A      5.680981    49A     31.337486

    Beta Occupied:

       1A    -14.571317     2A     -0.985022     3A     -0.575354
       4A     -0.575316     5A     -0.383125

    Beta Virtual:

       6A      0.087691     7A      0.159455     8A      0.159456
       9A      0.384530    10A      0.384554    11A      0.456657
      12A      0.512913    13A      0.588169    14A      0.594766
      15A      0.594791    16A      0.997830    17A      0.997848
      18A      1.232460    19A      1.326435    20A      1.326455
      21A      1.698395    22A      1.811206    23A      1.811231
      24A      1.870070    25A      2.031367    26A      2.099154
      27A      2.099195    28A      2.363321    29A      2.400248
      30A      2.400326    31A      2.474867    32A      2.538247
      33A      2.538398    34A      3.034012    35A      3.254608
      36A      3.254663    37A      4.059458    38A      4.307600
      39A      4.307697    40A      4.454393    41A      4.603721
      42A      4.603777    43A      4.605897    44A      4.875448
      45A      4.875521    46A      5.348596    47A      5.348683
      48A      5.680981    49A     31.337486

    Final Occupation by Irrep:
              A
    DOCC [     5 ]
    SOCC [     0 ]

  @DF-UKS Final Energy:   -56.55337012067561

   => Energetics <=

    Nuclear Repulsion Energy =             11.9118590025880593
    One-Electron Energy =                 -99.6385219902748247
    Two-Electron Energy =                  35.1341238164611127
    DFT Exchange-Correlation Energy =      -3.9608309494499565
    Empirical Dispersion Energy =           0.0000000000000000
    VV10 Nonlocal Energy =                  0.0000000000000000
    Total Energy =                        -56.5533701206756092

  UHF NO Occupations:
  HONO-2 :    3  A 2.0000000
  HONO-1 :    4  A 2.0000000
  HONO-0 :    5  A 2.0000000
  LUNO+0 :    6  A 0.0000000
  LUNO+1 :    7  A 0.0000000
  LUNO+2 :    8  A 0.0000000
  LUNO+3 :    9  A 0.0000000

Computation Completed

Properties will be evaluated at   0.000000,   0.000000,   0.000000 [a0]

Properties computed using the SCF density matrix

  Nuclear Dipole Moment: [e a0]
     X:     0.6997      Y:    -0.2951      Z:    -0.4718

  Electronic Dipole Moment: [e a0]
     X:    -0.1304      Y:     0.0549      Z:     0.0879

  Dipole Moment: [e a0]
     X:     0.5693      Y:    -0.2402      Z:    -0.3839     Total:     0.7275

  Dipole Moment: [D]
     X:     1.4471      Y:    -0.6105      Z:    -0.9759     Total:     1.8491

*** tstop() called on rh05314.villa-bosch.de at Wed Feb  5 14:14:35 2020
Module time:
	user time   =       2.90 seconds =       0.05 minutes
	system time =       0.07 seconds =       0.00 minutes
	total time  =          3 seconds =       0.05 minutes
Total time:
	user time   =       2.90 seconds =       0.05 minutes
	system time =       0.07 seconds =       0.00 minutes
	total time  =          3 seconds =       0.05 minutes

    Psi4 stopped on: Wednesday, 05 February 2020 02:14PM
    Psi4 wall time for execution: 0:00:03.15

*** Psi4 exiting successfully. Buy a developer a beer!
