                               Psi4 1.3.2 release

  ==> Input File <==

--------------------------------------------------------------------------

# PYTHONPATH must include directory above plugin directory.
#     Define either externally or here, then import plugin.
import psixas

molecule {
  N   -1.22651784160217      0.40019879988830      0.01704879881164
  H   -0.43885155782371      0.15100232225883      0.60864221052405
  H   -0.88355924463589      1.09440986479077     -0.64102616291803
  H   -1.44986135593823     -0.42747098693791     -0.52829484641767
symmetry c1
}

set {
  basis 6-31G*
}

set scf {
 reference uks
 scf_type DISK_DF
}

energy('M06')
--------------------------------------------------------------------------

    Molecular point group: c1

    Geometry (in Angstrom), charge = 0, multiplicity = 1:

       Center              X                  Y                   Z               Mass
    ------------   -----------------  -----------------  -----------------  -----------------
         N           -0.053703241151     0.022649891445     0.036214781014    14.003074004430
         H            0.733963042628    -0.226546586185     0.627808192726     1.007825032230
         H            0.289255355816     0.716860956347    -0.621860180716     1.007825032230
         H           -0.277046755487    -0.805019895381    -0.509128864215     1.007825032230

  Charge       = 0
  Multiplicity = 1
  Basis Set: 6-31G*
    Blend: 6-31G*
  Basis Set: (6-31G* AUX)
    Blend: CC-PVDZ-JKFIT

    Orbital Energies [Eh]
    ---------------------

    Alpha Occupied:

       1A    -14.377728     2A     -0.859144     3A     -0.461126
       4A     -0.461051     5A     -0.264085

    Alpha Virtual:

       6A      0.096429     7A      0.177545     8A      0.177594
       9A      0.690769    10A      0.690836    11A      0.736024
      12A      0.906532    13A      0.911848    14A      0.911983
      15A      1.148716    16A      1.678021    17A      1.678048
      18A      1.950439    19A      2.384446    20A      2.384687
      21A      3.675007

    Beta Occupied:

       1A    -14.377728     2A     -0.859144     3A     -0.461126
       4A     -0.461051     5A     -0.264085

    Beta Virtual:

       6A      0.096429     7A      0.177545     8A      0.177594
       9A      0.690769    10A      0.690836    11A      0.736024
      12A      0.906532    13A      0.911848    14A      0.911983
      15A      1.148716    16A      1.678021    17A      1.678048
      18A      1.950439    19A      2.384446    20A      2.384687
      21A      3.675007

    Final Occupation by Irrep:
              A
    DOCC [     5 ]
    SOCC [     0 ]

  @DF-UKS Final Energy:   -56.50854277965962

   => Energetics <=

    Nuclear Repulsion Energy =             11.9118590025880593
    One-Electron Energy =                 -99.6667639486597920
    Two-Electron Energy =                  37.1719810480411610
    DFT Exchange-Correlation Energy =      -5.9256188816290543
    Empirical Dispersion Energy =           0.0000000000000000
    VV10 Nonlocal Energy =                  0.0000000000000000
    Total Energy =                        -56.5085427796596278

  UHF NO Occupations:
  HONO-2 :    3  A 2.0000000
  HONO-1 :    4  A 2.0000000
  HONO-0 :    5  A 2.0000000
  LUNO+0 :    6  A 0.0000000
  LUNO+1 :    7  A 0.0000000
  LUNO+2 :    8  A 0.0000000
  LUNO+3 :    9  A 0.0000000

Computation Completed

Properties will be evaluated at   0.000000,   0.000000,   0.000000 [a0]

Properties computed using the SCF density matrix

  Nuclear Dipole Moment: [e a0]
     X:     0.6997      Y:    -0.2951      Z:    -0.4718

  Electronic Dipole Moment: [e a0]
     X:    -0.1099      Y:     0.0461      Z:     0.0740

  Dipole Moment: [e a0]
     X:     0.5898      Y:    -0.2489      Z:    -0.3978     Total:     0.7537

  Dipole Moment: [D]
     X:     1.4992      Y:    -0.6327      Z:    -1.0111     Total:     1.9158

*** tstop() called on rh05314.villa-bosch.de at Wed Feb  5 14:14:30 2020
Module time:
	user time   =       1.35 seconds =       0.02 minutes
	system time =       0.03 seconds =       0.00 minutes
	total time  =          2 seconds =       0.03 minutes
Total time:
	user time   =       1.35 seconds =       0.02 minutes
	system time =       0.03 seconds =       0.00 minutes
	total time  =          2 seconds =       0.03 minutes

    Psi4 stopped on: Wednesday, 05 February 2020 02:14PM
    Psi4 wall time for execution: 0:00:01.57

*** Psi4 exiting successfully. Buy a developer a beer!
