                               Psi4 1.3.2 release

  ==> Input File <==

--------------------------------------------------------------------------

# PYTHONPATH must include directory above plugin directory.
#     Define either externally or here, then import plugin.
import psixas

molecule {
  N   -1.22651784160217      0.40019879988830      0.01704879881164
  H   -0.43885155782371      0.15100232225883      0.60864221052405
  H   -0.88355924463589      1.09440986479077     -0.64102616291803
  H   -1.44986135593823     -0.42747098693791     -0.52829484641767
symmetry c1
}

set {
  basis def2-tzvp
}

set scf {
 reference uks
 scf_type DF
}

energy('PBE')
--------------------------------------------------------------------------

    Molecular point group: c1

    Geometry (in Angstrom), charge = 0, multiplicity = 1:

       Center              X                  Y                   Z               Mass
    ------------   -----------------  -----------------  -----------------  -----------------
         N           -0.053703241151     0.022649891445     0.036214781014    14.003074004430
         H            0.733963042628    -0.226546586185     0.627808192726     1.007825032230
         H            0.289255355816     0.716860956347    -0.621860180716     1.007825032230
         H           -0.277046755487    -0.805019895381    -0.509128864215     1.007825032230

  Charge       = 0
  Multiplicity = 1
  Basis Set: DEF2-TZVP
    Blend: DEF2-TZVP
  Basis Set: (DEF2-TZVP AUX)
    Blend: DEF2-TZVP-JKFIT

    Orbital Energies [Eh]
    ---------------------

    Alpha Occupied:

       1A    -13.956818     2A     -0.774010     3A     -0.410504
       4A     -0.410463     5A     -0.219996

    Alpha Virtual:

       6A      0.008366     7A      0.089634     8A      0.089650
       9A      0.272713    10A      0.272736    11A      0.324825
      12A      0.415619    13A      0.474402    14A      0.482667
      15A      0.482706    16A      0.849482    17A      0.849505
      18A      1.084568    19A      1.198710    20A      1.198732
      21A      1.539323    22A      1.655654    23A      1.655664
      24A      1.728818    25A      1.894166    26A      1.956425
      27A      1.956458    28A      2.230902    29A      2.256321
      30A      2.256394    31A      2.339734    32A      2.402497
      33A      2.402640    34A      2.939798    35A      3.152864
      36A      3.152994    37A      3.940589    38A      4.182064
      39A      4.182172    40A      4.312979    41A      4.488926
      42A      4.488981    43A      4.500594    44A      4.754865
      45A      4.754934    46A      5.275532    47A      5.275615
      48A      5.618328    49A     31.171925

    Beta Occupied:

       1A    -13.956818     2A     -0.774010     3A     -0.410504
       4A     -0.410463     5A     -0.219996

    Beta Virtual:

       6A      0.008366     7A      0.089634     8A      0.089650
       9A      0.272713    10A      0.272736    11A      0.324825
      12A      0.415619    13A      0.474402    14A      0.482667
      15A      0.482706    16A      0.849482    17A      0.849505
      18A      1.084568    19A      1.198710    20A      1.198732
      21A      1.539323    22A      1.655654    23A      1.655664
      24A      1.728818    25A      1.894166    26A      1.956425
      27A      1.956458    28A      2.230902    29A      2.256321
      30A      2.256394    31A      2.339734    32A      2.402497
      33A      2.402640    34A      2.939798    35A      3.152864
      36A      3.152994    37A      3.940589    38A      4.182064
      39A      4.182172    40A      4.312979    41A      4.488926
      42A      4.488981    43A      4.500594    44A      4.754865
      45A      4.754934    46A      5.275532    47A      5.275615
      48A      5.618328    49A     31.171925

    Final Occupation by Irrep:
              A
    DOCC [     5 ]
    SOCC [     0 ]

  @DF-UKS Final Energy:   -56.50801948944043

   => Energetics <=

    Nuclear Repulsion Energy =             11.9118590025880593
    One-Electron Energy =                 -99.6162344637188966
    Two-Electron Energy =                  39.1471904815669234
    DFT Exchange-Correlation Energy =      -7.9508345098765094
    Empirical Dispersion Energy =           0.0000000000000000
    VV10 Nonlocal Energy =                  0.0000000000000000
    Total Energy =                        -56.5080194894404215

  UHF NO Occupations:
  HONO-2 :    3  A 2.0000000
  HONO-1 :    4  A 2.0000000
  HONO-0 :    5  A 2.0000000
  LUNO+0 :    6  A 0.0000000
  LUNO+1 :    7  A 0.0000000
  LUNO+2 :    8  A 0.0000000
  LUNO+3 :    9  A 0.0000000

Computation Completed

Properties will be evaluated at   0.000000,   0.000000,   0.000000 [a0]

Properties computed using the SCF density matrix

  Nuclear Dipole Moment: [e a0]
     X:     0.6997      Y:    -0.2951      Z:    -0.4718

  Electronic Dipole Moment: [e a0]
     X:    -0.1790      Y:     0.0754      Z:     0.1206

  Dipole Moment: [e a0]
     X:     0.5207      Y:    -0.2197      Z:    -0.3512     Total:     0.6654

  Dipole Moment: [D]
     X:     1.3235      Y:    -0.5585      Z:    -0.8926     Total:     1.6912

*** tstop() called on rh05314.villa-bosch.de at Wed Feb  5 13:43:26 2020
Module time:
	user time   =       1.50 seconds =       0.03 minutes
	system time =       0.06 seconds =       0.00 minutes
	total time  =          2 seconds =       0.03 minutes
Total time:
	user time   =       1.50 seconds =       0.03 minutes
	system time =       0.06 seconds =       0.00 minutes
	total time  =          2 seconds =       0.03 minutes

    Psi4 stopped on: Wednesday, 05 February 2020 01:43PM
    Psi4 wall time for execution: 0:00:01.74

*** Psi4 exiting successfully. Buy a developer a beer!
